 +-------------------------------------------------+
 |                                                 |
 |      CCC   AA    SSS  TTTTT  EEEEE  PPPP        |
 |     C     A  A  S       T    E      P   P       |
 |     C     AAAA   SS     T    EEE    PPPP        |
 |     C     A  A     S    T    E      P           |
 |      CCC  A  A  SSS     T    EEEEE  P           |
 |                                                 |
 +-------------------------------------------------+
 |                                                 |
 | Welcome to Academic Release CASTEP version 17.21|          
 | Ab Initio Total Energy Program                  |
 |                                                 |
 | Authors:                                        |
 | M. Segall, M. Probert, C. Pickard, P. Hasnip,   |
 | S. Clark, K. Refson, J. R. Yates, M. Payne      |
 |                                                 |
 | Contributors:                                   |
 | P. Lindan, P. Haynes, J. White, V. Milman,      |
 | N. Govind, M. Gibson, P. Tulip, V. Cocula,      |
 | B. Montanari, D. Quigley, M. Glover,            |
 | L. Bernasconi, A. Perlov, M. Plummer,           |
 | E. McNellis, J. Meyer, J. Gale, D. Jochym       |
 | J. Aarons, B. Walker, R. Gillen, D. Jones       |
 | T. Green, I. J. Bush, C. J. Armstrong,          |
 | E. J. Higgins, E. L. Brown, M. S. McFly,        |
 | J. Wilkins, B-C. Shih, P. J. P. Byrne           |
 |                                                 |
 | Copyright (c) 2000 - 2017                       |
 |                                                 |
 |     Distributed under the terms of an           |
 |     Agreement between the United Kingdom        |
 |     Car-Parrinello (UKCP) Consortium,           |
 |     Daresbury Laboratory and Accelrys, Inc.     |
 |                                                 |
 | Please cite                                     |
 |                                                 |
 |     "First principles methods using CASTEP"     |
 |                                                 |
 |         Zeitschrift fuer Kristallographie       |
 |           220(5-6) pp. 567-570 (2005)           |
 |                                                 |
 | S. J. Clark, M. D. Segall, C. J. Pickard,       |
 | P. J. Hasnip, M. J. Probert, K. Refson,         |
 | M. C. Payne                                     |
 |                                                 |
 |       in all publications arising from          |
 |              your use of CASTEP                 |
 |                                                 |
 +-------------------------------------------------+


 Compiled for linux_x86_64_gfortran6.0-XT on Fri, 21 Jul 2017 10:20:05 +0100
 from code version 056e886bd5a1+ Castep172_branch Mon, 15 May 2017 14:45:35 +0100
 Compiler: GNU Fortran 6.3.0; Optimisation: fast
 MATHLIBS: Intel MKL(2017.0.0) (LAPACK version 3.6.0)
 FFT Lib : fftw3 version commercial-fftw-3.3.4-sse2-avx
 Fundamental constants values: CODATA 2010

 Run started: Fri, 20 Sep 2019 17:21:03 +0100

 Atomic calculation performed for Ti: 1s2 2s2 2p6 3s2 3p6 3d2 4s2

 Converged in 78 iterations to an ae energy of -23176.516 eV

   ============================================================                
   | Pseudopotential Report - Date of generation 20-09-2019   |                
   ------------------------------------------------------------                
   | Element: Ti Ionic charge: 12.00 Level of theory: LDA     |                
   | Atomic Solver: Koelling-Harmon                           |                
   |                                                          |                
   |               Reference Electronic Structure             |                
   |         Orbital         Occupation         Energy        |                
   |            3s              2.000           -2.288        |                
   |            3p              6.000           -1.425        |                
   |            4s              2.000           -0.169        |                
   |            3d              2.000           -0.164        |                
   |                                                          |                
   |                 Pseudopotential Definition               |                
   |        Beta     l      e      Rc     scheme   norm       |                
   |          1      0   -2.288   1.793     qc      0         |                
   |          2      0   -0.169   1.793     qc      0         |                
   |          3      0    0.250   1.793     qc      0         |                
   |          4      1   -1.425   1.793     qc      0         |                
   |          5      1    0.250   1.793     qc      0         |                
   |          6      2   -0.164   1.793     qc      0         |                
   |          7      2    0.250   1.793     qc      0         |                
   |         loc     3    0.000   1.793     pn      0         |                
   |                                                          |                
   | Augmentation charge Rinner = 1.263                       |                
   | Partial core correction Rc = 1.263                       |                
   ------------------------------------------------------------                
   | "3|1.8|9|10|11|30U:40:31:32(qc=5.5)"                     |                
   ------------------------------------------------------------                
   |      Author: Chris J. Pickard, Cambridge University      |                
   ============================================================                

 Pseudo atomic calculation performed for Ti 3s2 3p6 3d2 4s2

 Converged in 31 iterations to a total energy of -1585.9998 eV

 Calculation parallelised over 48 processes.
 Data is distributed by G-vector(3-way) and k-point(16-way)

 ************************************ Title ************************************
 

 ***************************** General Parameters ******************************
  
 output verbosity                               : normal  (1)
 write checkpoint data to                       : castep.check
 type of calculation                            : single point energy
 stress calculation                             : on
 density difference calculation                 : off
 electron localisation func (ELF) calculation   : off
 Hirshfeld analysis                             : off
 unlimited duration calculation
 timing information                             : on
 memory usage estimate                          : on
 write final potential to formatted file        : off
 write final density to formatted file          : off
 write BibTeX reference list                    : on
 write OTFG pseudopotential files               : on
 write electrostatic potential file             : on
 write bands file                               : on
 checkpoint writing                             : off
  
 output         length unit                     : A
 output           mass unit                     : amu
 output           time unit                     : ps
 output         charge unit                     : e
 output           spin unit                     : hbar/2
 output         energy unit                     : eV
 output          force unit                     : eV/A
 output       velocity unit                     : A/ps
 output       pressure unit                     : GPa
 output     inv_length unit                     : 1/A
 output      frequency unit                     : cm-1
 output force constant unit                     : eV/A**2
 output         volume unit                     : A**3
 output   IR intensity unit                     : (D/A)**2/amu
 output         dipole unit                     : D
 output         efield unit                     : eV/A/e
 output        entropy unit                     : J/mol/K
  
 wavefunctions paging                           : none
 random number generator seed                   : randomised (172103312)
 data distribution                              : optimal for this architecture
 optimization strategy                          : balance speed and memory

 *********************** Exchange-Correlation Parameters ***********************
  
 using functional                               : Local Density Approximation
 relativistic treatment                         : Koelling-Harmon
 DFT+D: Semi-empirical dispersion correction    : off

 ************************* Pseudopotential Parameters **************************
  
 pseudopotential representation                 : reciprocal space
 <beta|phi> representation                      : reciprocal space
 spin-orbit coupling                            : off

 **************************** Basis Set Parameters *****************************
  
 plane wave basis set cut-off                   :   600.0000   eV
 size of standard grid                          :     1.7500
 size of   fine   gmax                          :    21.9610   1/A
 finite basis set correction                    : automatic
 number of sample energies                      :          3
           sample  spacing                      :     5.0000   eV

 **************************** Electronic Parameters ****************************
  
 number of  electrons                           :  648.0    
 net charge of system                           :  0.000    
 treating system as non-spin-polarized
 number of bands                                :        389

 ********************* Electronic Minimization Parameters **********************
  
 Method: Treating system as metallic with density mixing treatment of electrons,
         and number of  SD  steps               :          1
         and number of  CG  steps               :          4
  
 total energy / atom convergence tol.           : 0.1000E-04   eV
 eigen-energy convergence tolerance             : 0.1000E-05   eV
 max force / atom convergence tol.              : ignored
 convergence tolerance window                   :          3   cycles
 max. number of SCF cycles                      :        250
 number of fixed-spin iterations                :         10
 smearing scheme                                : Gaussian
 smearing width                                 : 0.1000       eV
 Fermi energy convergence tolerance             : 0.2721E-13   eV
 periodic dipole correction                     : NONE

 ************************** Density Mixing Parameters **************************
  
 density-mixing scheme                          : Pulay
 max. length of mixing history                  :         20
 charge density mixing amplitude                : 0.8000    
 cut-off energy for mixing                      :  600.0       eV

 *********************** Population Analysis Parameters ************************
  
 Population analysis with cutoff                :  3.000       A

 *******************************************************************************
  

                           -------------------------------
                                      Unit Cell
                           -------------------------------
        Real Lattice(A)                      Reciprocal Lattice(1/A)
   8.5763590   0.0000000   0.0000000        0.7326169   0.4229765   0.0000000
  -4.2881790   7.4273440   0.0000000        0.0000000   0.8459532   0.0000000
   0.0000000   0.0000000  13.5844380        0.0000000   0.0000000   0.4625282

                       Lattice parameters(A)       Cell Angles
                    a =    8.576359          alpha =   90.000000
                    b =    8.576358          beta  =   90.000000
                    c =   13.584438          gamma =  120.000000

                       Current cell volume =  865.322840       A**3
                                   density =    2.987114   AMU/A**3
                                           =    4.960219     g/cm^3

                           -------------------------------
                                     Cell Contents
                           -------------------------------
                         Total number of ions in cell =   54
                      Total number of species in cell =    1
                        Max number of any one species =   54

            xxxxxxxxxxxxxxxxxxxxxxxxxxxxxxxxxxxxxxxxxxxxxxxxxxxxxxxxxxxx
            x  Element    Atom        Fractional coordinates of atoms  x
            x            Number           u          v          w      x
            x----------------------------------------------------------x
            x  Ti           1         0.000622   0.000000   0.000622   x 
            x  Ti           2         0.333333   0.000000   0.000000   x 
            x  Ti           3         0.666667   0.000000   0.000000   x 
            x  Ti           4        -0.000000   0.333333   0.000000   x 
            x  Ti           5         0.333333   0.333333   0.000000   x 
            x  Ti           6         0.666667   0.333333   0.000000   x 
            x  Ti           7         0.000000   0.666667   0.000000   x 
            x  Ti           8         0.333333   0.666667   0.000000   x 
            x  Ti           9         0.666667   0.666667   0.000000   x 
            x  Ti          10         0.000000   0.000000   0.333333   x 
            x  Ti          11         0.333333   0.000000   0.333333   x 
            x  Ti          12         0.666667   0.000000   0.333333   x 
            x  Ti          13        -0.000000   0.333333   0.333333   x 
            x  Ti          14         0.333333   0.333333   0.333333   x 
            x  Ti          15         0.666667   0.333333   0.333333   x 
            x  Ti          16         0.000000   0.666667   0.333333   x 
            x  Ti          17         0.333333   0.666667   0.333333   x 
            x  Ti          18         0.666667   0.666667   0.333333   x 
            x  Ti          19         0.000000   0.000000   0.666667   x 
            x  Ti          20         0.333333   0.000000   0.666667   x 
            x  Ti          21         0.666667   0.000000   0.666667   x 
            x  Ti          22        -0.000000   0.333333   0.666667   x 
            x  Ti          23         0.333333   0.333333   0.666667   x 
            x  Ti          24         0.666667   0.333333   0.666667   x 
            x  Ti          25         0.000000   0.666667   0.666667   x 
            x  Ti          26         0.333333   0.666667   0.666667   x 
            x  Ti          27         0.666667   0.666667   0.666667   x 
            x  Ti          28         0.111111   0.222222   0.166667   x 
            x  Ti          29         0.444444   0.222222   0.166667   x 
            x  Ti          30         0.777778   0.222222   0.166667   x 
            x  Ti          31         0.111111   0.555556   0.166667   x 
            x  Ti          32         0.444444   0.555556   0.166667   x 
            x  Ti          33         0.777778   0.555556   0.166667   x 
            x  Ti          34         0.111111   0.888889   0.166667   x 
            x  Ti          35         0.444444   0.888889   0.166667   x 
            x  Ti          36         0.777778   0.888889   0.166667   x 
            x  Ti          37         0.111111   0.222222   0.500000   x 
            x  Ti          38         0.444444   0.222222   0.500000   x 
            x  Ti          39         0.777778   0.222222   0.500000   x 
            x  Ti          40         0.111111   0.555556   0.500000   x 
            x  Ti          41         0.444444   0.555556   0.500000   x 
            x  Ti          42         0.777778   0.555556   0.500000   x 
            x  Ti          43         0.111111   0.888889   0.500000   x 
            x  Ti          44         0.444444   0.888889   0.500000   x 
            x  Ti          45         0.777778   0.888889   0.500000   x 
            x  Ti          46         0.111111   0.222222   0.833333   x 
            x  Ti          47         0.444444   0.222222   0.833333   x 
            x  Ti          48         0.777778   0.222222   0.833333   x 
            x  Ti          49         0.111111   0.555556   0.833333   x 
            x  Ti          50         0.444444   0.555556   0.833333   x 
            x  Ti          51         0.777778   0.555556   0.833333   x 
            x  Ti          52         0.111111   0.888889   0.833333   x 
            x  Ti          53         0.444444   0.888889   0.833333   x 
            x  Ti          54         0.777778   0.888889   0.833333   x 
            xxxxxxxxxxxxxxxxxxxxxxxxxxxxxxxxxxxxxxxxxxxxxxxxxxxxxxxxxxxx


                         No user defined ionic velocities

                           -------------------------------
                                   Details of Species
                           -------------------------------

                               Mass of species in AMU
                                    Ti   47.8670000

                          Electric Quadrupole Moment (Barn)
                                    Ti    0.3020000 Isotope 47

                          Files used for pseudopotentials:
                                    Ti 3|1.8|9|10|11|30U:40:31:32(qc=5.5)

                           -------------------------------
                              k-Points For BZ Sampling
                           -------------------------------
                       MP grid size for SCF calculation is  4  4  2
                            with an offset of   0.000  0.000  0.000
                       Number of kpoints used =            16

                           -------------------------------
                               Symmetry and Constraints
                           -------------------------------

                      Maximum deviation from symmetry =  0.00000         ANG

                      Number of symmetry operations   =           1
                      Number of ionic constraints     =           3
                      Point group of crystal =     1: C1, 1, 1
                      Space group of crystal =     1: P1, P 1

             Set iprint > 1 for details on symmetry rotations/translations

                         Centre of mass is constrained
             Set iprint > 1 for details of linear ionic constraints

                         Number of cell constraints= 0
                         Cell constraints are:  1 2 3 4 5 6

                         External pressure/stress (GPa)
                          0.00000   0.00000   0.00000
                                    0.00000   0.00000
                                              0.00000
  
+---------------- MEMORY AND SCRATCH DISK ESTIMATES PER PROCESS --------------+
|                                                     Memory          Disk    |
| Baseline code, static data and system overhead      172.0 MB         0.0 MB |
| BLAS internal memory storage                          0.0 MB         0.0 MB |
| Model and support data                              265.7 MB       168.9 MB |
| Electronic energy minimisation requirements         294.4 MB         0.0 MB |
| Force calculation requirements                       17.0 MB         0.0 MB |
| Stress calculation requirements                      18.8 MB         0.0 MB |
|                                               ----------------------------- |
| Approx. total storage required per process          732.1 MB       168.9 MB |
|                                                                             |
| Requirements will fluctuate during execution and may exceed these estimates |
+-----------------------------------------------------------------------------+
Calculating finite basis set correction with  3 cut-off energies.
Calculating total energy with cut-off of  590.000 eV.
------------------------------------------------------------------------ <-- SCF
SCF loop      Energy           Fermi           Energy gain       Timer   <-- SCF
                               energy          per atom          (sec)   <-- SCF
------------------------------------------------------------------------ <-- SCF
Initial  -7.81803351E+004  0.00000000E+000                        19.53  <-- SCF
      1  -8.39509021E+004  1.16773217E+001   1.06862353E+002     113.25  <-- SCF
      2  -8.59422516E+004  1.02234048E+001   3.68768415E+001     181.14  <-- SCF
      3  -8.60602681E+004  9.97028411E+000   2.18549144E+000     259.41  <-- SCF
      4  -8.60591053E+004  9.22100462E+000  -2.15337719E-002     336.47  <-- SCF
      5  -8.60573535E+004  9.47219960E+000  -3.24403158E-002     430.72  <-- SCF
      6  -8.60579994E+004  9.45096197E+000   1.19608011E-002     516.48  <-- SCF
      7  -8.60574797E+004  9.44962570E+000  -9.62483905E-003     598.14  <-- SCF
      8  -8.60574885E+004  9.45088715E+000   1.62850073E-004     671.62  <-- SCF
      9  -8.60574852E+004  9.45427068E+000  -6.11891548E-005     741.91  <-- SCF
     10  -8.60574848E+004  9.45471771E+000  -6.29345480E-006     806.83  <-- SCF
     11  -8.60574846E+004  9.45464753E+000  -3.74173464E-006     862.15  <-- SCF
     12  -8.60574846E+004  9.45462978E+000   2.15161671E-008     915.04  <-- SCF
------------------------------------------------------------------------ <-- SCF
 
Final energy, E             =  -86057.22125708     eV
Final free energy (E-TS)    =  -86057.48461621     eV
(energies not corrected for finite basis set)
 
NB est. 0K energy (E-0.5TS)      =  -86057.35293665     eV
 
Calculating total energy with cut-off of  595.000 eV.
------------------------------------------------------------------------ <-- SCF
SCF loop      Energy           Fermi           Energy gain       Timer   <-- SCF
                               energy          per atom          (sec)   <-- SCF
------------------------------------------------------------------------ <-- SCF
Initial  -8.60572211E+004  0.00000000E+000                       930.09  <-- SCF
      1  -8.60574906E+004  9.45445813E+000   4.99021937E-003    1010.19  <-- SCF
      2  -8.60574907E+004  9.45445776E+000   9.30288585E-007    1065.01  <-- SCF
      3  -8.60576072E+004  9.45171094E+000   2.15903448E-003    1146.92  <-- SCF
      4  -8.60574846E+004  9.45480121E+000  -2.27044907E-003    1229.99  <-- SCF
      5  -8.60574857E+004  9.45467281E+000   2.03840338E-005    1300.30  <-- SCF
      6  -8.60574854E+004  9.45459649E+000  -5.77298671E-006    1357.14  <-- SCF
      7  -8.60574854E+004  9.45460118E+000   9.20231254E-008    1409.82  <-- SCF
------------------------------------------------------------------------ <-- SCF
 
Final energy, E             =  -86057.22207601     eV
Final free energy (E-TS)    =  -86057.48542990     eV
(energies not corrected for finite basis set)
 
NB est. 0K energy (E-0.5TS)      =  -86057.35375295     eV
 
Calculating total energy with cut-off of  600.000 eV.
------------------------------------------------------------------------ <-- SCF
SCF loop      Energy           Fermi           Energy gain       Timer   <-- SCF
                               energy          per atom          (sec)   <-- SCF
------------------------------------------------------------------------ <-- SCF
Initial  -8.60572217E+004  0.00000000E+000                      1424.85  <-- SCF
      1  -8.60574983E+004  9.45433123E+000   5.12265856E-003    1509.61  <-- SCF
      2  -8.60574984E+004  9.45433041E+000   1.64188355E-006    1566.75  <-- SCF
      3  -8.60577720E+004  9.44848552E+000   5.06671124E-003    1649.39  <-- SCF
      4  -8.60574841E+004  9.45500123E+000  -5.33151378E-003    1731.63  <-- SCF
      5  -8.60574868E+004  9.45480253E+000   5.01414114E-005    1805.26  <-- SCF
      6  -8.60574862E+004  9.45460548E+000  -1.17698922E-005    1866.01  <-- SCF
      7  -8.60574862E+004  9.45460881E+000  -1.05721940E-007    1920.94  <-- SCF
      8  -8.60574862E+004  9.45461215E+000   1.03381592E-007    1972.71  <-- SCF
------------------------------------------------------------------------ <-- SCF
 
Final energy, E             =  -86057.22284673     eV
Final free energy (E-TS)    =  -86057.48619852     eV
(energies not corrected for finite basis set)
 
NB est. 0K energy (E-0.5TS)      =  -86057.35452263     eV
 
 For future reference: finite basis dEtot/dlog(Ecut) =      -0.094420eV
 Total energy corrected for finite basis set =  -86057.486198 eV

 ******************* Unconstrained Forces *******************
 *                                                          *
 *               Cartesian components (eV/A)                *
 * -------------------------------------------------------- *
 *                         x            y            z      *
 *                                                          *
 * Ti              1     -0.03017     -0.00314     -0.05571 *
 * Ti              2      0.01453     -0.00701      0.00294 *
 * Ti              3      0.01540     -0.00062      0.00293 *
 * Ti              4      0.00943     -0.01050      0.00389 *
 * Ti              5      0.00793      0.00297      0.00489 *
 * Ti              6      0.00781     -0.00331      0.00298 *
 * Ti              7      0.00860     -0.00370      0.00297 *
 * Ti              8      0.00789     -0.00401      0.00178 *
 * Ti              9      0.00852     -0.00276      0.00403 *
 * Ti             10      0.00476     -0.00293      0.00386 *
 * Ti             11      0.00727     -0.00271     -0.00053 *
 * Ti             12      0.00634     -0.00329     -0.00179 *
 * Ti             13      0.00566     -0.00372     -0.00249 *
 * Ti             14      0.00668     -0.00378     -0.00259 *
 * Ti             15      0.00568     -0.00387     -0.00141 *
 * Ti             16      0.00629     -0.00460     -0.00104 *
 * Ti             17      0.00572     -0.00328     -0.00137 *
 * Ti             18      0.00639     -0.00349     -0.00281 *
 * Ti             19      0.00477     -0.00386      0.00736 *
 * Ti             20      0.00673     -0.00397     -0.00099 *
 * Ti             21      0.00681     -0.00462      0.00057 *
 * Ti             22      0.00670     -0.00357      0.00032 *
 * Ti             23      0.00578     -0.00357     -0.00024 *
 * Ti             24      0.00587     -0.00366     -0.00099 *
 * Ti             25      0.00658     -0.00342     -0.00033 *
 * Ti             26      0.00590     -0.00301      0.00036 *
 * Ti             27      0.00586     -0.00206      0.00064 *
 * Ti             28     -0.00642      0.01240      0.00662 *
 * Ti             29     -0.01046      0.00327     -0.00223 *
 * Ti             30     -0.00477      0.00226     -0.00112 *
 * Ti             31     -0.00605      0.00191     -0.00140 *
 * Ti             32     -0.00505      0.00227     -0.00061 *
 * Ti             33     -0.00864      0.00596     -0.00198 *
 * Ti             34      0.00374     -0.00217      0.01248 *
 * Ti             35     -0.00530      0.00454     -0.00018 *
 * Ti             36     -0.00987      0.00175      0.00128 *
 * Ti             37     -0.00534      0.00288     -0.00094 *
 * Ti             38     -0.00629      0.00344     -0.00082 *
 * Ti             39     -0.00658      0.00330     -0.00001 *
 * Ti             40     -0.00627      0.00411     -0.00107 *
 * Ti             41     -0.00563      0.00334     -0.00089 *
 * Ti             42     -0.00651      0.00356     -0.00030 *
 * Ti             43     -0.00595      0.00396     -0.00089 *
 * Ti             44     -0.00652      0.00379     -0.00137 *
 * Ti             45     -0.00563      0.00342     -0.00046 *
 * Ti             46     -0.00688     -0.00554      0.00894 *
 * Ti             47     -0.00592      0.00432      0.00014 *
 * Ti             48     -0.00864      0.00403     -0.00131 *
 * Ti             49     -0.00494      0.00422      0.00120 *
 * Ti             50     -0.00681      0.00426      0.00071 *
 * Ti             51     -0.00745      0.00220     -0.00047 *
 * Ti             52     -0.01059      0.00554      0.00318 *
 * Ti             53     -0.00598      0.00230      0.00048 *
 * Ti             54      0.00501      0.01015      0.01382 *
 *                                                          *
 ************************************************************

 ******************** Constrained Forces ********************
 *                                                          *
 *               Cartesian components (eV/A)                *
 * -------------------------------------------------------- *
 *                         x            y            z      *
 *                                                          *
 * Ti              1     -0.03017     -0.00314     -0.05571 *
 * Ti              2      0.01453     -0.00701      0.00294 *
 * Ti              3      0.01540     -0.00062      0.00293 *
 * Ti              4      0.00943     -0.01050      0.00389 *
 * Ti              5      0.00793      0.00297      0.00489 *
 * Ti              6      0.00781     -0.00331      0.00298 *
 * Ti              7      0.00860     -0.00370      0.00297 *
 * Ti              8      0.00789     -0.00401      0.00178 *
 * Ti              9      0.00852     -0.00276      0.00403 *
 * Ti             10      0.00476     -0.00293      0.00386 *
 * Ti             11      0.00727     -0.00271     -0.00053 *
 * Ti             12      0.00634     -0.00329     -0.00179 *
 * Ti             13      0.00566     -0.00372     -0.00249 *
 * Ti             14      0.00668     -0.00378     -0.00259 *
 * Ti             15      0.00568     -0.00387     -0.00141 *
 * Ti             16      0.00629     -0.00460     -0.00104 *
 * Ti             17      0.00572     -0.00328     -0.00137 *
 * Ti             18      0.00639     -0.00349     -0.00281 *
 * Ti             19      0.00477     -0.00386      0.00736 *
 * Ti             20      0.00673     -0.00397     -0.00099 *
 * Ti             21      0.00681     -0.00462      0.00057 *
 * Ti             22      0.00670     -0.00357      0.00032 *
 * Ti             23      0.00578     -0.00357     -0.00024 *
 * Ti             24      0.00587     -0.00366     -0.00099 *
 * Ti             25      0.00658     -0.00342     -0.00033 *
 * Ti             26      0.00590     -0.00301      0.00036 *
 * Ti             27      0.00586     -0.00206      0.00064 *
 * Ti             28     -0.00642      0.01240      0.00662 *
 * Ti             29     -0.01046      0.00327     -0.00223 *
 * Ti             30     -0.00477      0.00226     -0.00112 *
 * Ti             31     -0.00605      0.00191     -0.00140 *
 * Ti             32     -0.00505      0.00227     -0.00061 *
 * Ti             33     -0.00864      0.00596     -0.00198 *
 * Ti             34      0.00374     -0.00217      0.01248 *
 * Ti             35     -0.00530      0.00454     -0.00018 *
 * Ti             36     -0.00987      0.00175      0.00128 *
 * Ti             37     -0.00534      0.00288     -0.00094 *
 * Ti             38     -0.00629      0.00344     -0.00082 *
 * Ti             39     -0.00658      0.00330     -0.00001 *
 * Ti             40     -0.00627      0.00411     -0.00107 *
 * Ti             41     -0.00563      0.00334     -0.00089 *
 * Ti             42     -0.00651      0.00356     -0.00030 *
 * Ti             43     -0.00595      0.00396     -0.00089 *
 * Ti             44     -0.00652      0.00379     -0.00137 *
 * Ti             45     -0.00563      0.00342     -0.00046 *
 * Ti             46     -0.00688     -0.00554      0.00894 *
 * Ti             47     -0.00592      0.00432      0.00014 *
 * Ti             48     -0.00864      0.00403     -0.00131 *
 * Ti             49     -0.00494      0.00422      0.00120 *
 * Ti             50     -0.00681      0.00426      0.00071 *
 * Ti             51     -0.00745      0.00220     -0.00047 *
 * Ti             52     -0.01059      0.00554      0.00318 *
 * Ti             53     -0.00598      0.00230      0.00048 *
 * Ti             54      0.00501      0.01015      0.01382 *
 *                                                          *
 ************************************************************

 ***************** Stress Tensor *****************
 *                                               *
 *          Cartesian components (GPa)           *
 * --------------------------------------------- *
 *             x             y             z     *
 *                                               *
 *  x     -0.718480      0.173090      0.000277  *
 *  y      0.173090     -0.521396     -0.000274  *
 *  z      0.000277     -0.000274     -0.479623  *
 *                                               *
 *  Pressure:    0.5732                          *
 *                                               *
 *************************************************

 Pseudo atomic calculation performed for Ti 3s2 3p6 3d2 4s2

 Converged in 31 iterations to a total energy of -1585.9998 eV

Charge spilling parameter for spin component 1 = 0.07%

     Atomic Populations (Mulliken)
     -----------------------------
Species          Ion     s      p      d      f     Total  Charge (e)
=====================================================================
  Ti              1     2.31   6.92   2.77   0.00  12.00     0.00
  Ti              2     2.31   6.92   2.77   0.00  12.00     0.00
  Ti              3     2.31   6.92   2.77   0.00  12.00     0.00
  Ti              4     2.31   6.92   2.77   0.00  12.00     0.00
  Ti              5     2.31   6.92   2.77   0.00  12.00     0.00
  Ti              6     2.31   6.92   2.77   0.00  12.00    -0.00
  Ti              7     2.31   6.92   2.77   0.00  12.00     0.00
  Ti              8     2.31   6.92   2.77   0.00  12.00     0.00
  Ti              9     2.31   6.92   2.77   0.00  12.00     0.00
  Ti             10     2.31   6.92   2.77   0.00  12.00     0.00
  Ti             11     2.31   6.92   2.77   0.00  12.00    -0.00
  Ti             12     2.31   6.92   2.77   0.00  12.00     0.00
  Ti             13     2.31   6.92   2.77   0.00  12.00     0.00
  Ti             14     2.31   6.92   2.77   0.00  12.00     0.00
  Ti             15     2.31   6.92   2.77   0.00  12.00    -0.00
  Ti             16     2.31   6.92   2.77   0.00  12.00    -0.00
  Ti             17     2.31   6.92   2.77   0.00  12.00     0.00
  Ti             18     2.31   6.92   2.77   0.00  12.00     0.00
  Ti             19     2.31   6.92   2.77   0.00  12.00     0.00
  Ti             20     2.31   6.92   2.77   0.00  12.00    -0.00
  Ti             21     2.31   6.92   2.77   0.00  12.00    -0.00
  Ti             22     2.31   6.92   2.77   0.00  12.00    -0.00
  Ti             23     2.31   6.92   2.77   0.00  12.00     0.00
  Ti             24     2.31   6.92   2.77   0.00  12.00    -0.00
  Ti             25     2.31   6.92   2.77   0.00  12.00    -0.00
  Ti             26     2.31   6.92   2.77   0.00  12.00    -0.00
  Ti             27     2.31   6.92   2.77   0.00  12.00    -0.00
  Ti             28     2.31   6.92   2.77   0.00  12.00     0.00
  Ti             29     2.31   6.92   2.77   0.00  12.00     0.00
  Ti             30     2.31   6.92   2.77   0.00  12.00    -0.00
  Ti             31     2.31   6.92   2.77   0.00  12.00     0.00
  Ti             32     2.31   6.92   2.77   0.00  12.00     0.00
  Ti             33     2.31   6.92   2.77   0.00  12.00     0.00
  Ti             34     2.31   6.92   2.77   0.00  12.00     0.00
  Ti             35     2.31   6.92   2.77   0.00  12.00     0.00
  Ti             36     2.31   6.92   2.77   0.00  12.00     0.00
  Ti             37     2.31   6.92   2.77   0.00  12.00     0.00
  Ti             38     2.31   6.92   2.77   0.00  12.00    -0.00
  Ti             39     2.31   6.92   2.77   0.00  12.00    -0.00
  Ti             40     2.31   6.92   2.77   0.00  12.00     0.00
  Ti             41     2.31   6.92   2.77   0.00  12.00     0.00
  Ti             42     2.31   6.92   2.77   0.00  12.00    -0.00
  Ti             43     2.31   6.92   2.77   0.00  12.00    -0.00
  Ti             44     2.31   6.92   2.77   0.00  12.00    -0.00
  Ti             45     2.31   6.92   2.77   0.00  12.00     0.00
  Ti             46     2.31   6.92   2.77   0.00  12.00     0.00
  Ti             47     2.31   6.92   2.77   0.00  12.00     0.00
  Ti             48     2.31   6.92   2.77   0.00  12.00    -0.00
  Ti             49     2.31   6.92   2.77   0.00  12.00    -0.00
  Ti             50     2.31   6.92   2.77   0.00  12.00    -0.00
  Ti             51     2.31   6.92   2.77   0.00  12.00    -0.00
  Ti             52     2.31   6.92   2.77   0.00  12.00    -0.00
  Ti             53     2.31   6.92   2.77   0.00  12.00    -0.00
  Ti             54     2.31   6.92   2.77   0.00  12.00    -0.00
=====================================================================

                 Bond                   Population      Length (A)
======================================================================
             Ti 1  -- Ti 34                  0.11        2.79227
             Ti 1  -- Ti 28                  0.11        2.79501
             Ti 1  -- Ti 36                  0.11        2.79773
             Ti 19 -- Ti 43                  0.11        2.80183
             Ti 10 -- Ti 34                  0.11        2.80183
             Ti 19 -- Ti 52                  0.11        2.80183
             Ti 10 -- Ti 43                  0.11        2.80183
             Ti 25 -- Ti 40                  0.11        2.80183
             Ti 16 -- Ti 31                  0.11        2.80183
             Ti 7  -- Ti 31                  0.11        2.80183
             Ti 25 -- Ti 49                  0.11        2.80183
             Ti 16 -- Ti 40                  0.11        2.80183
             Ti 7  -- Ti 49                  0.11        2.80183
             Ti 24 -- Ti 39                  0.11        2.80183
             Ti 20 -- Ti 44                  0.11        2.80183
             Ti 23 -- Ti 38                  0.11        2.80183
             Ti 22 -- Ti 37                  0.11        2.80183
             Ti 21 -- Ti 45                  0.11        2.80183
             Ti 15 -- Ti 30                  0.11        2.80183
             Ti 11 -- Ti 35                  0.11        2.80183
             Ti 6  -- Ti 30                  0.11        2.80183
             Ti 2  -- Ti 35                  0.11        2.80183
             Ti 14 -- Ti 29                  0.11        2.80183
             Ti 13 -- Ti 28                  0.11        2.80183
             Ti 12 -- Ti 36                  0.11        2.80183
             Ti 5  -- Ti 29                  0.11        2.80183
             Ti 4  -- Ti 28                  0.11        2.80183
             Ti 3  -- Ti 36                  0.11        2.80183
             Ti 24 -- Ti 48                  0.11        2.80183
             Ti 20 -- Ti 53                  0.11        2.80183
             Ti 15 -- Ti 39                  0.11        2.80183
             Ti 11 -- Ti 44                  0.11        2.80183
             Ti 6  -- Ti 48                  0.11        2.80183
             Ti 2  -- Ti 53                  0.11        2.80183
             Ti 23 -- Ti 47                  0.11        2.80183
             Ti 22 -- Ti 46                  0.11        2.80183
             Ti 21 -- Ti 54                  0.11        2.80183
             Ti 14 -- Ti 38                  0.11        2.80183
             Ti 13 -- Ti 37                  0.11        2.80183
             Ti 12 -- Ti 45                  0.11        2.80183
             Ti 5  -- Ti 47                  0.11        2.80183
             Ti 4  -- Ti 46                  0.11        2.80183
             Ti 3  -- Ti 54                  0.11        2.80183
             Ti 27 -- Ti 42                  0.11        2.80183
             Ti 26 -- Ti 41                  0.11        2.80183
             Ti 18 -- Ti 33                  0.11        2.80183
             Ti 17 -- Ti 32                  0.11        2.80183
             Ti 9  -- Ti 33                  0.11        2.80183
             Ti 8  -- Ti 32                  0.11        2.80183
             Ti 27 -- Ti 51                  0.11        2.80183
             Ti 26 -- Ti 50                  0.11        2.80183
             Ti 18 -- Ti 42                  0.11        2.80183
             Ti 17 -- Ti 41                  0.11        2.80183
             Ti 9  -- Ti 51                  0.11        2.80183
             Ti 8  -- Ti 50                  0.11        2.80183
             Ti 23 -- Ti 37                  0.11        2.80183
             Ti 21 -- Ti 44                  0.11        2.80183
             Ti 24 -- Ti 38                  0.11        2.80183
             Ti 12 -- Ti 35                  0.11        2.80183
             Ti 3  -- Ti 35                  0.11        2.80183
             Ti 14 -- Ti 28                  0.11        2.80183
             Ti 5  -- Ti 28                  0.11        2.80183
             Ti 15 -- Ti 29                  0.11        2.80183
             Ti 6  -- Ti 29                  0.11        2.80183
             Ti 23 -- Ti 46                  0.11        2.80183
             Ti 21 -- Ti 53                  0.11        2.80183
             Ti 14 -- Ti 37                  0.11        2.80183
             Ti 12 -- Ti 44                  0.11        2.80183
             Ti 5  -- Ti 46                  0.11        2.80183
             Ti 3  -- Ti 53                  0.11        2.80183
             Ti 24 -- Ti 47                  0.11        2.80183
             Ti 15 -- Ti 38                  0.11        2.80183
             Ti 6  -- Ti 47                  0.11        2.80183
             Ti 27 -- Ti 41                  0.11        2.80183
             Ti 18 -- Ti 32                  0.11        2.80183
             Ti 9  -- Ti 32                  0.11        2.80183
             Ti 27 -- Ti 50                  0.11        2.80183
             Ti 18 -- Ti 41                  0.11        2.80183
             Ti 9  -- Ti 50                  0.11        2.80183
             Ti 22 -- Ti 39                  0.11        2.80183
             Ti 20 -- Ti 43                  0.11        2.80183
             Ti 19 -- Ti 45                  0.11        2.80183
             Ti 11 -- Ti 34                  0.11        2.80183
             Ti 10 -- Ti 36                  0.11        2.80183
             Ti 2  -- Ti 34                  0.11        2.80183
             Ti 13 -- Ti 30                  0.11        2.80183
             Ti 4  -- Ti 30                  0.11        2.80183
             Ti 20 -- Ti 52                  0.11        2.80183
             Ti 19 -- Ti 54                  0.11        2.80183
             Ti 11 -- Ti 43                  0.11        2.80183
             Ti 10 -- Ti 45                  0.11        2.80183
             Ti 2  -- Ti 52                  0.11        2.80183
             Ti 22 -- Ti 48                  0.11        2.80183
             Ti 13 -- Ti 39                  0.11        2.80183
             Ti 4  -- Ti 48                  0.11        2.80183
             Ti 24 -- Ti 42                  0.11        2.80183
             Ti 23 -- Ti 41                  0.11        2.80183
             Ti 27 -- Ti 45                  0.11        2.80183
             Ti 26 -- Ti 44                  0.11        2.80183
             Ti 21 -- Ti 39                  0.11        2.80183
             Ti 20 -- Ti 38                  0.11        2.80183
             Ti 19 -- Ti 37                  0.11        2.80183
             Ti 15 -- Ti 33                  0.11        2.80183
             Ti 14 -- Ti 32                  0.11        2.80183
             Ti 6  -- Ti 33                  0.11        2.80183
             Ti 5  -- Ti 32                  0.11        2.80183
             Ti 18 -- Ti 36                  0.11        2.80183
             Ti 17 -- Ti 35                  0.11        2.80183
             Ti 12 -- Ti 30                  0.11        2.80183
             Ti 11 -- Ti 29                  0.11        2.80183
             Ti 10 -- Ti 28                  0.11        2.80183
             Ti 9  -- Ti 36                  0.11        2.80183
             Ti 8  -- Ti 35                  0.11        2.80183
             Ti 3  -- Ti 30                  0.11        2.80183
             Ti 2  -- Ti 29                  0.11        2.80183
             Ti 24 -- Ti 51                  0.11        2.80183
             Ti 23 -- Ti 50                  0.11        2.80183
             Ti 15 -- Ti 42                  0.11        2.80183
             Ti 14 -- Ti 41                  0.11        2.80183
             Ti 6  -- Ti 51                  0.11        2.80183
             Ti 5  -- Ti 50                  0.11        2.80183
             Ti 21 -- Ti 48                  0.11        2.80183
             Ti 20 -- Ti 47                  0.11        2.80183
             Ti 19 -- Ti 46                  0.11        2.80183
             Ti 12 -- Ti 39                  0.11        2.80183
             Ti 11 -- Ti 38                  0.11        2.80183
             Ti 10 -- Ti 37                  0.11        2.80183
             Ti 3  -- Ti 48                  0.11        2.80183
             Ti 2  -- Ti 47                  0.11        2.80183
             Ti 27 -- Ti 54                  0.11        2.80183
             Ti 26 -- Ti 53                  0.11        2.80183
             Ti 18 -- Ti 45                  0.11        2.80183
             Ti 17 -- Ti 44                  0.11        2.80183
             Ti 9  -- Ti 54                  0.11        2.80183
             Ti 8  -- Ti 53                  0.11        2.80183
             Ti 22 -- Ti 40                  0.11        2.80183
             Ti 25 -- Ti 43                  0.11        2.80183
             Ti 13 -- Ti 31                  0.11        2.80183
             Ti 4  -- Ti 31                  0.11        2.80183
             Ti 16 -- Ti 34                  0.11        2.80183
             Ti 7  -- Ti 34                  0.11        2.80183
             Ti 22 -- Ti 49                  0.11        2.80183
             Ti 13 -- Ti 40                  0.11        2.80183
             Ti 4  -- Ti 49                  0.11        2.80183
             Ti 25 -- Ti 52                  0.11        2.80183
             Ti 16 -- Ti 43                  0.11        2.80183
             Ti 7  -- Ti 52                  0.11        2.80183
             Ti 26 -- Ti 40                  0.11        2.80183
             Ti 25 -- Ti 42                  0.11        2.80183
             Ti 17 -- Ti 31                  0.11        2.80183
             Ti 16 -- Ti 33                  0.11        2.80183
             Ti 8  -- Ti 31                  0.11        2.80183
             Ti 7  -- Ti 33                  0.11        2.80183
             Ti 26 -- Ti 49                  0.11        2.80183
             Ti 25 -- Ti 51                  0.11        2.80183
             Ti 17 -- Ti 40                  0.11        2.80183
             Ti 16 -- Ti 42                  0.11        2.80183
             Ti 8  -- Ti 49                  0.11        2.80183
             Ti 7  -- Ti 51                  0.11        2.80183
             Ti 1  -- Ti 52                  0.11        2.80595
             Ti 1  -- Ti 46                  0.11        2.80867
             Ti 1  -- Ti 54                  0.11        2.81139
             Ti 1  -- Ti 2                   0.23        2.85346
             Ti 1  -- Ti 7                   0.23        2.85613
             Ti 1  -- Ti 5                   0.23        2.85613
             Ti 46 -- Ti 52                  0.23        2.85879
             Ti 37 -- Ti 43                  0.23        2.85879
             Ti 28 -- Ti 34                  0.23        2.85879
             Ti 21 -- Ti 26                  0.23        2.85879
             Ti 20 -- Ti 25                  0.23        2.85879
             Ti 12 -- Ti 17                  0.23        2.85879
             Ti 11 -- Ti 16                  0.23        2.85879
             Ti 3  -- Ti 8                   0.23        2.85879
             Ti 2  -- Ti 7                   0.23        2.85879
             Ti 48 -- Ti 53                  0.23        2.85879
             Ti 48 -- Ti 51                  0.23        2.85879
             Ti 47 -- Ti 51                  0.23        2.85879
             Ti 47 -- Ti 50                  0.23        2.85879
             Ti 39 -- Ti 44                  0.23        2.85879
             Ti 39 -- Ti 42                  0.23        2.85879
             Ti 38 -- Ti 42                  0.23        2.85879
             Ti 38 -- Ti 41                  0.23        2.85879
             Ti 30 -- Ti 35                  0.23        2.85879
             Ti 30 -- Ti 33                  0.23        2.85879
             Ti 29 -- Ti 33                  0.23        2.85879
             Ti 29 -- Ti 32                  0.23        2.85879
             Ti 48 -- Ti 54                  0.23        2.85879
             Ti 48 -- Ti 49                  0.23        2.85879
             Ti 47 -- Ti 53                  0.23        2.85879
             Ti 46 -- Ti 50                  0.23        2.85879
             Ti 39 -- Ti 45                  0.23        2.85879
             Ti 39 -- Ti 40                  0.23        2.85879
             Ti 38 -- Ti 44                  0.23        2.85879
             Ti 37 -- Ti 41                  0.23        2.85879
             Ti 30 -- Ti 36                  0.23        2.85879
             Ti 30 -- Ti 31                  0.23        2.85879
             Ti 29 -- Ti 35                  0.23        2.85879
             Ti 28 -- Ti 32                  0.23        2.85879
             Ti 21 -- Ti 27                  0.23        2.85879
             Ti 21 -- Ti 24                  0.23        2.85879
             Ti 20 -- Ti 26                  0.23        2.85879
             Ti 19 -- Ti 25                  0.23        2.85879
             Ti 12 -- Ti 18                  0.23        2.85879
             Ti 12 -- Ti 15                  0.23        2.85879
             Ti 11 -- Ti 17                  0.23        2.85879
             Ti 10 -- Ti 16                  0.23        2.85879
             Ti 3  -- Ti 9                   0.23        2.85879
             Ti 3  -- Ti 6                   0.23        2.85879
             Ti 2  -- Ti 8                   0.23        2.85879
             Ti 20 -- Ti 23                  0.23        2.85879
             Ti 19 -- Ti 23                  0.23        2.85879
             Ti 19 -- Ti 22                  0.23        2.85879
             Ti 11 -- Ti 14                  0.23        2.85879
             Ti 10 -- Ti 14                  0.23        2.85879
             Ti 10 -- Ti 13                  0.23        2.85879
             Ti 2  -- Ti 5                   0.23        2.85879
             Ti 20 -- Ti 24                  0.23        2.85879
             Ti 11 -- Ti 15                  0.23        2.85879
             Ti 2  -- Ti 6                   0.23        2.85879
             Ti 52 -- Ti 54                  0.23        2.85879
             Ti 50 -- Ti 51                  0.23        2.85879
             Ti 43 -- Ti 45                  0.23        2.85879
             Ti 41 -- Ti 42                  0.23        2.85879
             Ti 34 -- Ti 36                  0.23        2.85879
             Ti 32 -- Ti 33                  0.23        2.85879
             Ti 22 -- Ti 23                  0.23        2.85879
             Ti 13 -- Ti 14                  0.23        2.85879
             Ti 4  -- Ti 5                   0.23        2.85879
             Ti 47 -- Ti 48                  0.23        2.85879
             Ti 46 -- Ti 47                  0.23        2.85879
             Ti 38 -- Ti 39                  0.23        2.85879
             Ti 37 -- Ti 38                  0.23        2.85879
             Ti 29 -- Ti 30                  0.23        2.85879
             Ti 28 -- Ti 29                  0.23        2.85879
             Ti 26 -- Ti 27                  0.23        2.85879
             Ti 25 -- Ti 26                  0.23        2.85879
             Ti 20 -- Ti 21                  0.23        2.85879
             Ti 19 -- Ti 20                  0.23        2.85879
             Ti 17 -- Ti 18                  0.23        2.85879
             Ti 16 -- Ti 17                  0.23        2.85879
             Ti 11 -- Ti 12                  0.23        2.85879
             Ti 10 -- Ti 11                  0.23        2.85879
             Ti 8  -- Ti 9                   0.23        2.85879
             Ti 7  -- Ti 8                   0.23        2.85879
             Ti 2  -- Ti 3                   0.23        2.85879
             Ti 53 -- Ti 54                  0.23        2.85879
             Ti 49 -- Ti 51                  0.23        2.85879
             Ti 44 -- Ti 45                  0.23        2.85879
             Ti 40 -- Ti 42                  0.23        2.85879
             Ti 35 -- Ti 36                  0.23        2.85879
             Ti 31 -- Ti 33                  0.23        2.85879
             Ti 23 -- Ti 24                  0.23        2.85879
             Ti 14 -- Ti 15                  0.23        2.85879
             Ti 5  -- Ti 6                   0.23        2.85879
             Ti 47 -- Ti 52                  0.23        2.85879
             Ti 46 -- Ti 54                  0.23        2.85879
             Ti 46 -- Ti 49                  0.23        2.85879
             Ti 38 -- Ti 43                  0.23        2.85879
             Ti 37 -- Ti 45                  0.23        2.85879
             Ti 37 -- Ti 40                  0.23        2.85879
             Ti 29 -- Ti 34                  0.23        2.85879
             Ti 28 -- Ti 36                  0.23        2.85879
             Ti 28 -- Ti 31                  0.23        2.85879
             Ti 19 -- Ti 27                  0.23        2.85879
             Ti 10 -- Ti 18                  0.23        2.85879
             Ti 21 -- Ti 22                  0.23        2.85879
             Ti 12 -- Ti 13                  0.23        2.85879
             Ti 3  -- Ti 4                   0.23        2.85879
             Ti 23 -- Ti 26                  0.23        2.85879
             Ti 22 -- Ti 25                  0.23        2.85879
             Ti 14 -- Ti 17                  0.23        2.85879
             Ti 13 -- Ti 16                  0.23        2.85879
             Ti 5  -- Ti 8                   0.23        2.85879
             Ti 4  -- Ti 7                   0.23        2.85879
             Ti 24 -- Ti 27                  0.23        2.85879
             Ti 15 -- Ti 18                  0.23        2.85879
             Ti 6  -- Ti 9                   0.23        2.85879
             Ti 51 -- Ti 54                  0.23        2.85879
             Ti 42 -- Ti 45                  0.23        2.85879
             Ti 33 -- Ti 36                  0.23        2.85879
             Ti 23 -- Ti 27                  0.23        2.85879
             Ti 22 -- Ti 26                  0.23        2.85879
             Ti 14 -- Ti 18                  0.23        2.85879
             Ti 13 -- Ti 17                  0.23        2.85879
             Ti 5  -- Ti 9                   0.23        2.85879
             Ti 4  -- Ti 8                   0.23        2.85879
             Ti 50 -- Ti 54                  0.23        2.85879
             Ti 50 -- Ti 53                  0.23        2.85879
             Ti 49 -- Ti 52                  0.23        2.85879
             Ti 41 -- Ti 45                  0.23        2.85879
             Ti 41 -- Ti 44                  0.23        2.85879
             Ti 40 -- Ti 43                  0.23        2.85879
             Ti 32 -- Ti 36                  0.23        2.85879
             Ti 32 -- Ti 35                  0.23        2.85879
             Ti 31 -- Ti 34                  0.23        2.85879
             Ti 51 -- Ti 52                  0.23        2.85879
             Ti 42 -- Ti 43                  0.23        2.85879
             Ti 33 -- Ti 34                  0.23        2.85879
             Ti 22 -- Ti 24                  0.23        2.85879
             Ti 13 -- Ti 15                  0.23        2.85879
             Ti 4  -- Ti 6                   0.23        2.85879
             Ti 52 -- Ti 53                  0.23        2.85879
             Ti 43 -- Ti 44                  0.23        2.85879
             Ti 34 -- Ti 35                  0.23        2.85879
             Ti 49 -- Ti 50                  0.23        2.85879
             Ti 46 -- Ti 48                  0.23        2.85879
             Ti 40 -- Ti 41                  0.23        2.85879
             Ti 37 -- Ti 39                  0.23        2.85879
             Ti 31 -- Ti 32                  0.23        2.85879
             Ti 28 -- Ti 30                  0.23        2.85879
             Ti 25 -- Ti 27                  0.23        2.85879
             Ti 19 -- Ti 21                  0.23        2.85879
             Ti 16 -- Ti 18                  0.23        2.85879
             Ti 10 -- Ti 12                  0.23        2.85879
             Ti 7  -- Ti 9                   0.23        2.85879
             Ti 24 -- Ti 25                  0.23        2.85879
             Ti 15 -- Ti 16                  0.23        2.85879
             Ti 6  -- Ti 7                   0.23        2.85879
             Ti 49 -- Ti 53                  0.23        2.85879
             Ti 40 -- Ti 44                  0.23        2.85879
             Ti 31 -- Ti 35                  0.23        2.85879
             Ti 1  -- Ti 4                   0.23        2.86147
             Ti 1  -- Ti 9                   0.23        2.86147
             Ti 1  -- Ti 3                   0.23        2.86414
======================================================================

 
 A BibTeX formatted list of references used in this run has been written to 
 castep.bib
 
Initialisation time =     10.79 s
Calculation time    =   2320.46 s
Finalisation time   =      0.14 s
Total time          =   2331.40 s
Peak Memory Use     = 1730712 kB
  
Overall parallel efficiency rating: Very good (85%)                             
  
Data was distributed by:-
G-vector (3-way); efficiency rating: Very good (86%)                            
k-point (16-way); efficiency rating: Excellent (98%)                            
