 +-------------------------------------------------+
 |                                                 |
 |      CCC   AA    SSS  TTTTT  EEEEE  PPPP        |
 |     C     A  A  S       T    E      P   P       |
 |     C     AAAA   SS     T    EEE    PPPP        |
 |     C     A  A     S    T    E      P           |
 |      CCC  A  A  SSS     T    EEEEE  P           |
 |                                                 |
 +-------------------------------------------------+
 |                                                 |
 | Welcome to Academic Release CASTEP version 17.21|          
 | Ab Initio Total Energy Program                  |
 |                                                 |
 | Authors:                                        |
 | M. Segall, M. Probert, C. Pickard, P. Hasnip,   |
 | S. Clark, K. Refson, J. R. Yates, M. Payne      |
 |                                                 |
 | Contributors:                                   |
 | P. Lindan, P. Haynes, J. White, V. Milman,      |
 | N. Govind, M. Gibson, P. Tulip, V. Cocula,      |
 | B. Montanari, D. Quigley, M. Glover,            |
 | L. Bernasconi, A. Perlov, M. Plummer,           |
 | E. McNellis, J. Meyer, J. Gale, D. Jochym       |
 | J. Aarons, B. Walker, R. Gillen, D. Jones       |
 | T. Green, I. J. Bush, C. J. Armstrong,          |
 | E. J. Higgins, E. L. Brown, M. S. McFly,        |
 | J. Wilkins, B-C. Shih, P. J. P. Byrne           |
 |                                                 |
 | Copyright (c) 2000 - 2017                       |
 |                                                 |
 |     Distributed under the terms of an           |
 |     Agreement between the United Kingdom        |
 |     Car-Parrinello (UKCP) Consortium,           |
 |     Daresbury Laboratory and Accelrys, Inc.     |
 |                                                 |
 | Please cite                                     |
 |                                                 |
 |     "First principles methods using CASTEP"     |
 |                                                 |
 |         Zeitschrift fuer Kristallographie       |
 |           220(5-6) pp. 567-570 (2005)           |
 |                                                 |
 | S. J. Clark, M. D. Segall, C. J. Pickard,       |
 | P. J. Hasnip, M. J. Probert, K. Refson,         |
 | M. C. Payne                                     |
 |                                                 |
 |       in all publications arising from          |
 |              your use of CASTEP                 |
 |                                                 |
 +-------------------------------------------------+


 Compiled for linux_x86_64_gfortran6.0-XT on Fri, 21 Jul 2017 10:20:05 +0100
 from code version 056e886bd5a1+ Castep172_branch Mon, 15 May 2017 14:45:35 +0100
 Compiler: GNU Fortran 6.3.0; Optimisation: fast
 MATHLIBS: Intel MKL(2017.0.0) (LAPACK version 3.6.0)
 FFT Lib : fftw3 version commercial-fftw-3.3.4-sse2-avx
 Fundamental constants values: CODATA 2010

 Run started: Thu, 31 Oct 2019 11:06:01 +0000

 Atomic calculation performed for Al: 1s2 2s2 2p6 3s2 3p1

 Converged in 55 iterations to an ae energy of -6578.725 eV

   ============================================================                
   | Pseudopotential Report - Date of generation 31-10-2019   |                
   ------------------------------------------------------------                
   | Element: Al Ionic charge:  3.00 Level of theory: LDA     |                
   | Atomic Solver: Koelling-Harmon                           |                
   |                                                          |                
   |               Reference Electronic Structure             |                
   |         Orbital         Occupation         Energy        |                
   |            3s              2.000           -0.288        |                
   |            3p              1.000           -0.102        |                
   |                                                          |                
   |                 Pseudopotential Definition               |                
   |        Beta     l      e      Rc     scheme   norm       |                
   |          1      0   -0.288   2.192     qc      0         |                
   |          2      0    0.250   2.192     qc      0         |                
   |          3      1   -0.102   2.192     qc      0         |                
   |          4      1    0.250   2.192     qc      0         |                
   |          5      2    0.000   2.000     qc      0         |                
   |          6      2    0.250   2.000     qc      0         |                
   |         loc     3    0.000   2.192     pn      0         |                
   |                                                          |                
   | Augmentation charge Rinner = 1.398                       |                
   | Partial core correction Rc = 1.398                       |                
   ------------------------------------------------------------                
   | "3|2.2|2.2|1.4|4|5|5|30:31:32U2U2"                       |                
   ------------------------------------------------------------                
   |      Author: Chris J. Pickard, Cambridge University      |                
   ============================================================                

 Atomic calculation performed for Ti: 1s2 2s2 2p6 3s2 3p6 3d2 4s2

 Converged in 78 iterations to an ae energy of -23176.516 eV

   ============================================================                
   | Pseudopotential Report - Date of generation 31-10-2019   |                
   ------------------------------------------------------------                
   | Element: Ti Ionic charge: 12.00 Level of theory: LDA     |                
   | Atomic Solver: Koelling-Harmon                           |                
   |                                                          |                
   |               Reference Electronic Structure             |                
   |         Orbital         Occupation         Energy        |                
   |            3s              2.000           -2.288        |                
   |            3p              6.000           -1.425        |                
   |            4s              2.000           -0.169        |                
   |            3d              2.000           -0.164        |                
   |                                                          |                
   |                 Pseudopotential Definition               |                
   |        Beta     l      e      Rc     scheme   norm       |                
   |          1      0   -2.288   1.793     qc      0         |                
   |          2      0   -0.169   1.793     qc      0         |                
   |          3      0    0.250   1.793     qc      0         |                
   |          4      1   -1.425   1.793     qc      0         |                
   |          5      1    0.250   1.793     qc      0         |                
   |          6      2   -0.164   1.793     qc      0         |                
   |          7      2    0.250   1.793     qc      0         |                
   |         loc     3    0.000   1.793     pn      0         |                
   |                                                          |                
   | Augmentation charge Rinner = 1.263                       |                
   | Partial core correction Rc = 1.263                       |                
   ------------------------------------------------------------                
   | "3|1.8|9|10|11|30U:40:31:32(qc=5.5)"                     |                
   ------------------------------------------------------------                
   |      Author: Chris J. Pickard, Cambridge University      |                
   ============================================================                

 Pseudo atomic calculation performed for Al 3s2 3p1

 Converged in 15 iterations to a total energy of -105.5952 eV


 Pseudo atomic calculation performed for Ti 3s2 3p6 3d2 4s2

 Converged in 31 iterations to a total energy of -1585.9998 eV

 Calculation parallelised over 42 processes.
 Data is distributed by G-vector(3-way) and k-point(14-way)

 ************************************ Title ************************************
 

 ***************************** General Parameters ******************************
  
 output verbosity                               : normal  (1)
 write checkpoint data to                       : castep.check
 type of calculation                            : single point energy
 stress calculation                             : on
 density difference calculation                 : off
 electron localisation func (ELF) calculation   : off
 Hirshfeld analysis                             : off
 unlimited duration calculation
 timing information                             : on
 memory usage estimate                          : on
 write final potential to formatted file        : off
 write final density to formatted file          : off
 write BibTeX reference list                    : on
 write OTFG pseudopotential files               : on
 write electrostatic potential file             : on
 write bands file                               : on
 checkpoint writing                             : off
  
 output         length unit                     : A
 output           mass unit                     : amu
 output           time unit                     : ps
 output         charge unit                     : e
 output           spin unit                     : hbar/2
 output         energy unit                     : eV
 output          force unit                     : eV/A
 output       velocity unit                     : A/ps
 output       pressure unit                     : GPa
 output     inv_length unit                     : 1/A
 output      frequency unit                     : cm-1
 output force constant unit                     : eV/A**2
 output         volume unit                     : A**3
 output   IR intensity unit                     : (D/A)**2/amu
 output         dipole unit                     : D
 output         efield unit                     : eV/A/e
 output        entropy unit                     : J/mol/K
  
 wavefunctions paging                           : none
 random number generator seed                   : randomised (110601695)
 data distribution                              : optimal for this architecture
 optimization strategy                          : balance speed and memory

 *********************** Exchange-Correlation Parameters ***********************
  
 using functional                               : Local Density Approximation
 relativistic treatment                         : Koelling-Harmon
 DFT+D: Semi-empirical dispersion correction    : off

 ************************* Pseudopotential Parameters **************************
  
 pseudopotential representation                 : reciprocal space
 <beta|phi> representation                      : reciprocal space
 spin-orbit coupling                            : off

 **************************** Basis Set Parameters *****************************
  
 plane wave basis set cut-off                   :   600.0000   eV
 size of standard grid                          :     1.7500
 size of   fine   gmax                          :    21.9610   1/A
 finite basis set correction                    : automatic
 number of sample energies                      :          3
           sample  spacing                      :     5.0000   eV

 **************************** Electronic Parameters ****************************
  
 number of  electrons                           :  624.0    
 net charge of system                           :  0.000    
 treating system as non-spin-polarized
 number of bands                                :        374

 ********************* Electronic Minimization Parameters **********************
  
 Method: Treating system as metallic with density mixing treatment of electrons,
         and number of  SD  steps               :          1
         and number of  CG  steps               :          4
  
 total energy / atom convergence tol.           : 0.1000E-04   eV
 eigen-energy convergence tolerance             : 0.1000E-05   eV
 max force / atom convergence tol.              : ignored
 convergence tolerance window                   :          3   cycles
 max. number of SCF cycles                      :        250
 number of fixed-spin iterations                :         10
 smearing scheme                                : Gaussian
 smearing width                                 : 0.1000       eV
 Fermi energy convergence tolerance             : 0.2721E-13   eV
 periodic dipole correction                     : NONE

 ************************** Density Mixing Parameters **************************
  
 density-mixing scheme                          : Pulay
 max. length of mixing history                  :         20
 charge density mixing amplitude                : 0.8000    
 cut-off energy for mixing                      :  600.0       eV

 *********************** Population Analysis Parameters ************************
  
 Population analysis with cutoff                :  3.000       A

 *******************************************************************************
  

                           -------------------------------
                                      Unit Cell
                           -------------------------------
        Real Lattice(A)                      Reciprocal Lattice(1/A)
  11.5016960   0.0000000   0.0000000        0.5462834   0.3153969   0.0000000
  -5.7508480   9.9607610   0.0000000        0.0000000   0.6307937   0.0000000
   0.0000000   0.0000000   9.3105640        0.0000000   0.0000000   0.6748448

                       Lattice parameters(A)       Cell Angles
                    a =   11.501696          alpha =   90.000000
                    b =   11.501696          beta  =   90.000000
                    c =    9.310564          gamma =  120.000000

                       Current cell volume = 1066.670770       A**3
                                   density =    2.558728   AMU/A**3
                                           =    4.248868     g/cm^3

                           -------------------------------
                                     Cell Contents
                           -------------------------------
                         Total number of ions in cell =   64
                      Total number of species in cell =    2
                        Max number of any one species =   48

            xxxxxxxxxxxxxxxxxxxxxxxxxxxxxxxxxxxxxxxxxxxxxxxxxxxxxxxxxxxx
            x  Element    Atom        Fractional coordinates of atoms  x
            x            Number           u          v          w      x
            x----------------------------------------------------------x
            x  Al           1         0.166666   0.333333   0.125000   x 
            x  Al           2         0.666666   0.333333   0.125000   x 
            x  Al           3         0.166666   0.833334   0.125000   x 
            x  Al           4         0.666666   0.833334   0.125000   x 
            x  Al           5         0.166666   0.333333   0.625000   x 
            x  Al           6         0.666666   0.333333   0.625000   x 
            x  Al           7         0.166666   0.833334   0.625000   x 
            x  Al           8         0.666666   0.833334   0.625000   x 
            x  Al           9         0.333334   0.166666   0.375000   x 
            x  Al          10         0.833334   0.166666   0.375000   x 
            x  Al          11         0.333333   0.666666   0.375000   x 
            x  Al          12         0.833333   0.666666   0.375000   x 
            x  Al          13         0.333334   0.166666   0.875000   x 
            x  Al          14         0.833334   0.166666   0.875000   x 
            x  Al          15         0.333333   0.666666   0.875000   x 
            x  Al          16         0.833333   0.666666   0.875000   x 
            x  Ti           1         0.415822   0.330293   0.125676   x 
            x  Ti           2         0.915147   0.330293   0.125000   x 
            x  Ti           3         0.415146   0.830293   0.125000   x 
            x  Ti           4         0.915146   0.830293   0.125000   x 
            x  Ti           5         0.415147   0.330293   0.625000   x 
            x  Ti           6         0.915147   0.330293   0.625000   x 
            x  Ti           7         0.415146   0.830293   0.625000   x 
            x  Ti           8         0.915146   0.830293   0.625000   x 
            x  Ti           9         0.084854   0.415146   0.375000   x 
            x  Ti          10         0.584854   0.415146   0.375000   x 
            x  Ti          11         0.084853   0.915146   0.375000   x 
            x  Ti          12         0.584853   0.915146   0.375000   x 
            x  Ti          13         0.084854   0.415146   0.875000   x 
            x  Ti          14         0.584854   0.415146   0.875000   x 
            x  Ti          15         0.084853   0.915146   0.875000   x 
            x  Ti          16         0.584853   0.915146   0.875000   x 
            x  Ti          17         0.330293   0.415146   0.375000   x 
            x  Ti          18         0.830293   0.415146   0.375000   x 
            x  Ti          19         0.330293   0.915146   0.375000   x 
            x  Ti          20         0.830293   0.915146   0.375000   x 
            x  Ti          21         0.330293   0.415146   0.875000   x 
            x  Ti          22         0.830293   0.415146   0.875000   x 
            x  Ti          23         0.330293   0.915146   0.875000   x 
            x  Ti          24         0.830293   0.915146   0.875000   x 
            x  Ti          25         0.169707   0.084853   0.125000   x 
            x  Ti          26         0.669707   0.084853   0.125000   x 
            x  Ti          27         0.169707   0.584854   0.125000   x 
            x  Ti          28         0.669707   0.584854   0.125000   x 
            x  Ti          29         0.169707   0.084853   0.625000   x 
            x  Ti          30         0.669707   0.084853   0.625000   x 
            x  Ti          31         0.169707   0.584854   0.625000   x 
            x  Ti          32         0.669707   0.584854   0.625000   x 
            x  Ti          33         0.415146   0.084853   0.125000   x 
            x  Ti          34         0.915146   0.084853   0.125000   x 
            x  Ti          35         0.415146   0.584854   0.125000   x 
            x  Ti          36         0.915146   0.584854   0.125000   x 
            x  Ti          37         0.415146   0.084853   0.625000   x 
            x  Ti          38         0.915146   0.084853   0.625000   x 
            x  Ti          39         0.415146   0.584854   0.625000   x 
            x  Ti          40         0.915146   0.584854   0.625000   x 
            x  Ti          41         0.084854   0.169707   0.375000   x 
            x  Ti          42         0.584854   0.169707   0.375000   x 
            x  Ti          43         0.084853   0.669707   0.375000   x 
            x  Ti          44         0.584853   0.669707   0.375000   x 
            x  Ti          45         0.084854   0.169707   0.875000   x 
            x  Ti          46         0.584854   0.169707   0.875000   x 
            x  Ti          47         0.084853   0.669707   0.875000   x 
            x  Ti          48         0.584853   0.669707   0.875000   x 
            xxxxxxxxxxxxxxxxxxxxxxxxxxxxxxxxxxxxxxxxxxxxxxxxxxxxxxxxxxxx


                         No user defined ionic velocities

                           -------------------------------
                                   Details of Species
                           -------------------------------

                               Mass of species in AMU
                                    Al   26.9815400
                                    Ti   47.8670000

                          Electric Quadrupole Moment (Barn)
                                    Al    0.1466000 Isotope 27
                                    Ti    0.3020000 Isotope 47

                          Files used for pseudopotentials:
                                    Al 3|2.2|2.2|1.4|4|5|5|30:31:32U2U2
                                    Ti 3|1.8|9|10|11|30U:40:31:32(qc=5.5)

                           -------------------------------
                              k-Points For BZ Sampling
                           -------------------------------
                       MP grid size for SCF calculation is  3  3  3
                            with an offset of   0.000  0.000  0.000
                       Number of kpoints used =            14

                           -------------------------------
                               Symmetry and Constraints
                           -------------------------------

                      Maximum deviation from symmetry =  0.00000         ANG

                      Number of symmetry operations   =           1
                      Number of ionic constraints     =           3
                      Point group of crystal =     1: C1, 1, 1
                      Space group of crystal =     1: P1, P 1

             Set iprint > 1 for details on symmetry rotations/translations

                         Centre of mass is constrained
             Set iprint > 1 for details of linear ionic constraints

                         Number of cell constraints= 0
                         Cell constraints are:  1 2 3 4 5 6

                         External pressure/stress (GPa)
                          0.00000   0.00000   0.00000
                                    0.00000   0.00000
                                              0.00000
  
+---------------- MEMORY AND SCRATCH DISK ESTIMATES PER PROCESS --------------+
|                                                     Memory          Disk    |
| Baseline code, static data and system overhead      173.0 MB         0.0 MB |
| BLAS internal memory storage                          0.0 MB         0.0 MB |
| Model and support data                              361.7 MB       439.9 MB |
| Electronic energy minimisation requirements         354.3 MB         0.0 MB |
| Force calculation requirements                       30.6 MB         0.0 MB |
| Stress calculation requirements                      33.1 MB         0.0 MB |
|                                               ----------------------------- |
| Approx. total storage required per process          888.9 MB       439.9 MB |
|                                                                             |
| Requirements will fluctuate during execution and may exceed these estimates |
+-----------------------------------------------------------------------------+
Calculating finite basis set correction with  3 cut-off energies.
Calculating total energy with cut-off of  590.000 eV.
------------------------------------------------------------------------ <-- SCF
SCF loop      Energy           Fermi           Energy gain       Timer   <-- SCF
                               energy          per atom          (sec)   <-- SCF
------------------------------------------------------------------------ <-- SCF
Initial  -6.87773545E+004  0.00000000E+000                        31.65  <-- SCF
      1  -7.61911768E+004  1.01603272E+001   1.15840973E+002     174.64  <-- SCF
      2  -7.81499268E+004  8.56358066E+000   3.06054697E+001     273.21  <-- SCF
      3  -7.82702786E+004  8.01687055E+000   1.88049674E+000     388.63  <-- SCF
      4  -7.82725977E+004  7.35314565E+000   3.62352231E-002     499.41  <-- SCF
      5  -7.82692978E+004  7.70736402E+000  -5.15613696E-002     633.72  <-- SCF
      6  -7.82702107E+004  7.68832400E+000   1.42639125E-002     782.71  <-- SCF
      7  -7.82692998E+004  7.65980180E+000  -1.42322625E-002     897.45  <-- SCF
      8  -7.82693207E+004  7.65776149E+000   3.27445466E-004    1015.99  <-- SCF
      9  -7.82693097E+004  7.65418706E+000  -1.72816904E-004    1123.25  <-- SCF
     10  -7.82693080E+004  7.65404514E+000  -2.69706491E-005    1223.58  <-- SCF
     11  -7.82693077E+004  7.65454641E+000  -3.82153698E-006    1305.37  <-- SCF
     12  -7.82693076E+004  7.65462449E+000  -1.73384976E-006    1380.27  <-- SCF
------------------------------------------------------------------------ <-- SCF
 
Final energy, E             =  -78269.07685166     eV
Final free energy (E-TS)    =  -78269.30760414     eV
(energies not corrected for finite basis set)
 
NB est. 0K energy (E-0.5TS)      =  -78269.19222790     eV
 
Calculating total energy with cut-off of  595.000 eV.
------------------------------------------------------------------------ <-- SCF
SCF loop      Energy           Fermi           Energy gain       Timer   <-- SCF
                               energy          per atom          (sec)   <-- SCF
------------------------------------------------------------------------ <-- SCF
Initial  -7.82690766E+004  0.00000000E+000                      1407.61  <-- SCF
      1  -7.82693154E+004  7.65490724E+000   3.73136060E-003    1523.24  <-- SCF
      2  -7.82693155E+004  7.65490681E+000   1.10078436E-006    1595.69  <-- SCF
      3  -7.82695211E+004  7.65694775E+000   3.21222954E-003    1706.91  <-- SCF
      4  -7.82693061E+004  7.65477540E+000  -3.35953050E-003    1816.91  <-- SCF
      5  -7.82693088E+004  7.65464788E+000   4.22169036E-005    1915.96  <-- SCF
      6  -7.82693084E+004  7.65455876E+000  -4.83273659E-006    1995.68  <-- SCF
      7  -7.82693084E+004  7.65457992E+000  -4.58962016E-007    2066.25  <-- SCF
------------------------------------------------------------------------ <-- SCF
 
Final energy, E             =  -78269.07767415     eV
Final free energy (E-TS)    =  -78269.30841329     eV
(energies not corrected for finite basis set)
 
NB est. 0K energy (E-0.5TS)      =  -78269.19304372     eV
 
Calculating total energy with cut-off of  600.000 eV.
------------------------------------------------------------------------ <-- SCF
SCF loop      Energy           Fermi           Energy gain       Timer   <-- SCF
                               energy          per atom          (sec)   <-- SCF
------------------------------------------------------------------------ <-- SCF
Initial  -7.82690772E+004  0.00000000E+000                      2090.49  <-- SCF
      1  -7.82693226E+004  7.65493829E+000   3.83416700E-003    2210.73  <-- SCF
      2  -7.82693227E+004  7.65493737E+000   1.98393176E-006    2286.92  <-- SCF
      3  -7.82696955E+004  7.65951740E+000   5.82537411E-003    2398.18  <-- SCF
      4  -7.82693047E+004  7.65510304E+000  -6.10631315E-003    2510.10  <-- SCF
      5  -7.82693096E+004  7.65486952E+000   7.58225572E-005    2611.32  <-- SCF
      6  -7.82693093E+004  7.65457127E+000  -4.45318436E-006    2697.22  <-- SCF
      7  -7.82693092E+004  7.65456477E+000  -2.05447072E-006    2769.43  <-- SCF
------------------------------------------------------------------------ <-- SCF
 
Final energy, E             =  -78269.07842809     eV
Final free energy (E-TS)    =  -78269.30916345     eV
(energies not corrected for finite basis set)
 
NB est. 0K energy (E-0.5TS)      =  -78269.19379577     eV
 
 For future reference: finite basis dEtot/dlog(Ecut) =      -0.091586eV
 Total energy corrected for finite basis set =  -78269.309158 eV

 ******************* Unconstrained Forces *******************
 *                                                          *
 *               Cartesian components (eV/A)                *
 * -------------------------------------------------------- *
 *                         x            y            z      *
 *                                                          *
 * Al              1      0.00903     -0.00251      0.00108 *
 * Al              2      0.01024      0.00316      0.00108 *
 * Al              3     -0.00223     -0.00100      0.00050 *
 * Al              4      0.00128     -0.00016     -0.00041 *
 * Al              5     -0.00011     -0.00032      0.00054 *
 * Al              6      0.00097      0.00023      0.00053 *
 * Al              7     -0.00073     -0.00036     -0.00010 *
 * Al              8      0.00076      0.00043     -0.00011 *
 * Al              9     -0.00178     -0.00387      0.00629 *
 * Al             10      0.00035      0.00093      0.00050 *
 * Al             11     -0.00070     -0.00102      0.00058 *
 * Al             12      0.00131     -0.00057     -0.00007 *
 * Al             13     -0.00169      0.00573      0.00451 *
 * Al             14      0.00043      0.00070     -0.00098 *
 * Al             15      0.00013     -0.00193     -0.00058 *
 * Al             16      0.00061     -0.00091      0.00007 *
 * Ti              1     -0.05469      0.01342     -0.04600 *
 * Ti              2     -0.00034      0.01503      0.00276 *
 * Ti              3     -0.00101      0.00548      0.00068 *
 * Ti              4      0.00201      0.00833     -0.00104 *
 * Ti              5     -0.00370      0.01133      0.01269 *
 * Ti              6      0.00204      0.01417     -0.00045 *
 * Ti              7     -0.00200      0.00889      0.00009 *
 * Ti              8      0.00214      0.00974      0.00175 *
 * Ti              9     -0.01250      0.00153      0.00017 *
 * Ti             10      0.00064      0.00771      0.00765 *
 * Ti             11     -0.00995      0.00815     -0.00037 *
 * Ti             12     -0.00867      0.00777      0.00209 *
 * Ti             13     -0.00784      0.00289     -0.00013 *
 * Ti             14     -0.00867      0.00389     -0.00075 *
 * Ti             15     -0.01009      0.01012      0.00046 *
 * Ti             16     -0.00758      0.00754     -0.00291 *
 * Ti             17      0.00458      0.00092     -0.00081 *
 * Ti             18      0.01650      0.00579      0.00185 *
 * Ti             19      0.00677      0.00253      0.00442 *
 * Ti             20      0.01228      0.01138      0.00061 *
 * Ti             21      0.01414     -0.00211      0.00740 *
 * Ti             22      0.01189      0.00691     -0.00181 *
 * Ti             23      0.00471      0.00463     -0.00444 *
 * Ti             24      0.01321      0.01069     -0.00149 *
 * Ti             25     -0.00997      0.00288      0.00409 *
 * Ti             26     -0.00232      0.00049     -0.00045 *
 * Ti             27     -0.01251     -0.01367      0.00039 *
 * Ti             28     -0.00202     -0.01194      0.00019 *
 * Ti             29     -0.01436     -0.00168     -0.00041 *
 * Ti             30     -0.00595      0.00097      0.00047 *
 * Ti             31     -0.01308     -0.01310     -0.00037 *
 * Ti             32     -0.00440     -0.00937      0.00032 *
 * Ti             33      0.01049     -0.00412      0.00460 *
 * Ti             34      0.01456      0.00263     -0.00016 *
 * Ti             35      0.01126     -0.01014      0.00003 *
 * Ti             36      0.01175     -0.00869      0.00057 *
 * Ti             37      0.00878     -0.00219     -0.00079 *
 * Ti             38      0.01305      0.00217      0.00017 *
 * Ti             39      0.00791     -0.01105      0.00063 *
 * Ti             40      0.01272     -0.00982     -0.00050 *
 * Ti             41     -0.00314     -0.00834      0.00144 *
 * Ti             42     -0.00041     -0.00291      0.00131 *
 * Ti             43     -0.00139     -0.01760      0.00059 *
 * Ti             44      0.00101     -0.01570     -0.00050 *
 * Ti             45     -0.00426     -0.00861     -0.00341 *
 * Ti             46      0.00159     -0.00233     -0.00308 *
 * Ti             47     -0.00226     -0.01720     -0.00021 *
 * Ti             48      0.00123     -0.01591     -0.00081 *
 *                                                          *
 ************************************************************

 ******************** Constrained Forces ********************
 *                                                          *
 *               Cartesian components (eV/A)                *
 * -------------------------------------------------------- *
 *                         x            y            z      *
 *                                                          *
 * Al              1      0.00903     -0.00251      0.00108 *
 * Al              2      0.01024      0.00316      0.00108 *
 * Al              3     -0.00223     -0.00100      0.00050 *
 * Al              4      0.00128     -0.00016     -0.00041 *
 * Al              5     -0.00011     -0.00032      0.00054 *
 * Al              6      0.00097      0.00023      0.00053 *
 * Al              7     -0.00073     -0.00036     -0.00010 *
 * Al              8      0.00076      0.00043     -0.00011 *
 * Al              9     -0.00178     -0.00387      0.00629 *
 * Al             10      0.00035      0.00093      0.00050 *
 * Al             11     -0.00070     -0.00102      0.00058 *
 * Al             12      0.00131     -0.00057     -0.00007 *
 * Al             13     -0.00169      0.00573      0.00451 *
 * Al             14      0.00043      0.00070     -0.00098 *
 * Al             15      0.00013     -0.00193     -0.00058 *
 * Al             16      0.00061     -0.00091      0.00007 *
 * Ti              1     -0.05469      0.01342     -0.04600 *
 * Ti              2     -0.00034      0.01503      0.00276 *
 * Ti              3     -0.00101      0.00548      0.00068 *
 * Ti              4      0.00201      0.00833     -0.00104 *
 * Ti              5     -0.00370      0.01133      0.01269 *
 * Ti              6      0.00204      0.01417     -0.00045 *
 * Ti              7     -0.00200      0.00889      0.00009 *
 * Ti              8      0.00214      0.00974      0.00175 *
 * Ti              9     -0.01250      0.00153      0.00017 *
 * Ti             10      0.00064      0.00771      0.00765 *
 * Ti             11     -0.00995      0.00815     -0.00037 *
 * Ti             12     -0.00867      0.00777      0.00209 *
 * Ti             13     -0.00784      0.00289     -0.00013 *
 * Ti             14     -0.00867      0.00389     -0.00075 *
 * Ti             15     -0.01009      0.01012      0.00046 *
 * Ti             16     -0.00758      0.00754     -0.00291 *
 * Ti             17      0.00458      0.00092     -0.00081 *
 * Ti             18      0.01650      0.00579      0.00185 *
 * Ti             19      0.00677      0.00253      0.00442 *
 * Ti             20      0.01228      0.01138      0.00061 *
 * Ti             21      0.01414     -0.00211      0.00740 *
 * Ti             22      0.01189      0.00691     -0.00181 *
 * Ti             23      0.00471      0.00463     -0.00444 *
 * Ti             24      0.01321      0.01069     -0.00149 *
 * Ti             25     -0.00997      0.00288      0.00409 *
 * Ti             26     -0.00232      0.00049     -0.00045 *
 * Ti             27     -0.01251     -0.01367      0.00039 *
 * Ti             28     -0.00202     -0.01194      0.00019 *
 * Ti             29     -0.01436     -0.00168     -0.00041 *
 * Ti             30     -0.00595      0.00097      0.00047 *
 * Ti             31     -0.01308     -0.01310     -0.00037 *
 * Ti             32     -0.00440     -0.00937      0.00032 *
 * Ti             33      0.01049     -0.00412      0.00460 *
 * Ti             34      0.01456      0.00263     -0.00016 *
 * Ti             35      0.01126     -0.01014      0.00003 *
 * Ti             36      0.01175     -0.00869      0.00057 *
 * Ti             37      0.00878     -0.00219     -0.00079 *
 * Ti             38      0.01305      0.00217      0.00017 *
 * Ti             39      0.00791     -0.01105      0.00063 *
 * Ti             40      0.01272     -0.00982     -0.00050 *
 * Ti             41     -0.00314     -0.00834      0.00144 *
 * Ti             42     -0.00041     -0.00291      0.00131 *
 * Ti             43     -0.00139     -0.01760      0.00059 *
 * Ti             44      0.00101     -0.01570     -0.00050 *
 * Ti             45     -0.00426     -0.00861     -0.00341 *
 * Ti             46      0.00159     -0.00233     -0.00308 *
 * Ti             47     -0.00226     -0.01720     -0.00021 *
 * Ti             48      0.00123     -0.01591     -0.00081 *
 *                                                          *
 ************************************************************

 ***************** Stress Tensor *****************
 *                                               *
 *          Cartesian components (GPa)           *
 * --------------------------------------------- *
 *             x             y             z     *
 *                                               *
 *  x      7.667396     -0.000804      0.000026  *
 *  y     -0.000804      7.668052      0.003701  *
 *  z      0.000026      0.003701      7.523165  *
 *                                               *
 *  Pressure:   -7.6195                          *
 *                                               *
 *************************************************

 Pseudo atomic calculation performed for Al 3s2 3p1

 Converged in 15 iterations to a total energy of -105.5952 eV


 Pseudo atomic calculation performed for Ti 3s2 3p6 3d2 4s2

 Converged in 31 iterations to a total energy of -1585.9998 eV

Charge spilling parameter for spin component 1 = 0.13%

     Atomic Populations (Mulliken)
     -----------------------------
Species          Ion     s      p      d      f     Total  Charge (e)
=====================================================================
  Al              1     0.96   2.08   0.00   0.00   3.04    -0.04
  Al              2     0.96   2.08   0.00   0.00   3.04    -0.04
  Al              3     0.96   2.08   0.00   0.00   3.04    -0.04
  Al              4     0.96   2.08   0.00   0.00   3.04    -0.04
  Al              5     0.96   2.08   0.00   0.00   3.04    -0.04
  Al              6     0.96   2.08   0.00   0.00   3.04    -0.04
  Al              7     0.96   2.08   0.00   0.00   3.04    -0.04
  Al              8     0.96   2.08   0.00   0.00   3.04    -0.04
  Al              9     0.96   2.08   0.00   0.00   3.04    -0.04
  Al             10     0.96   2.08   0.00   0.00   3.04    -0.04
  Al             11     0.96   2.08   0.00   0.00   3.04    -0.04
  Al             12     0.96   2.08   0.00   0.00   3.04    -0.04
  Al             13     0.96   2.08   0.00   0.00   3.04    -0.04
  Al             14     0.96   2.08   0.00   0.00   3.04    -0.04
  Al             15     0.96   2.08   0.00   0.00   3.04    -0.04
  Al             16     0.96   2.08   0.00   0.00   3.04    -0.04
  Ti              1     2.35   6.85   2.78   0.00  11.98     0.02
  Ti              2     2.35   6.85   2.78   0.00  11.98     0.02
  Ti              3     2.35   6.85   2.78   0.00  11.99     0.01
  Ti              4     2.35   6.85   2.78   0.00  11.99     0.01
  Ti              5     2.35   6.85   2.78   0.00  11.98     0.02
  Ti              6     2.35   6.85   2.78   0.00  11.98     0.02
  Ti              7     2.35   6.85   2.78   0.00  11.99     0.01
  Ti              8     2.35   6.85   2.78   0.00  11.99     0.01
  Ti              9     2.35   6.85   2.78   0.00  11.98     0.02
  Ti             10     2.35   6.85   2.78   0.00  11.98     0.02
  Ti             11     2.35   6.85   2.78   0.00  11.99     0.01
  Ti             12     2.35   6.85   2.78   0.00  11.99     0.01
  Ti             13     2.35   6.85   2.78   0.00  11.98     0.02
  Ti             14     2.35   6.85   2.78   0.00  11.98     0.02
  Ti             15     2.35   6.85   2.78   0.00  11.99     0.01
  Ti             16     2.35   6.85   2.78   0.00  11.99     0.01
  Ti             17     2.35   6.85   2.78   0.00  11.98     0.02
  Ti             18     2.35   6.85   2.78   0.00  11.98     0.02
  Ti             19     2.35   6.85   2.78   0.00  11.99     0.01
  Ti             20     2.35   6.85   2.78   0.00  11.99     0.01
  Ti             21     2.35   6.85   2.78   0.00  11.98     0.02
  Ti             22     2.35   6.85   2.78   0.00  11.98     0.02
  Ti             23     2.35   6.85   2.78   0.00  11.99     0.01
  Ti             24     2.35   6.85   2.78   0.00  11.99     0.01
  Ti             25     2.35   6.85   2.78   0.00  11.98     0.02
  Ti             26     2.35   6.85   2.78   0.00  11.99     0.01
  Ti             27     2.35   6.85   2.78   0.00  11.98     0.02
  Ti             28     2.35   6.85   2.78   0.00  11.98     0.02
  Ti             29     2.35   6.85   2.78   0.00  11.98     0.02
  Ti             30     2.35   6.85   2.78   0.00  11.98     0.02
  Ti             31     2.35   6.85   2.78   0.00  11.98     0.02
  Ti             32     2.35   6.85   2.78   0.00  11.98     0.02
  Ti             33     2.35   6.85   2.78   0.00  11.99     0.01
  Ti             34     2.35   6.85   2.78   0.00  11.98     0.02
  Ti             35     2.35   6.85   2.78   0.00  11.99     0.01
  Ti             36     2.35   6.85   2.78   0.00  11.98     0.02
  Ti             37     2.35   6.85   2.78   0.00  11.99     0.01
  Ti             38     2.35   6.85   2.78   0.00  11.98     0.02
  Ti             39     2.35   6.85   2.78   0.00  11.99     0.01
  Ti             40     2.35   6.85   2.78   0.00  11.98     0.02
  Ti             41     2.35   6.85   2.78   0.00  11.98     0.02
  Ti             42     2.35   6.85   2.78   0.00  11.99     0.01
  Ti             43     2.35   6.85   2.78   0.00  11.99     0.01
  Ti             44     2.35   6.85   2.78   0.00  11.99     0.01
  Ti             45     2.35   6.85   2.78   0.00  11.98     0.02
  Ti             46     2.35   6.85   2.78   0.00  11.99     0.01
  Ti             47     2.35   6.85   2.78   0.00  11.99     0.01
  Ti             48     2.35   6.85   2.78   0.00  11.99     0.01
=====================================================================

                 Bond                   Population      Length (A)
======================================================================
             Ti 1  -- Ti 33                  0.06        2.81910
             Ti 16 -- Ti 24                  0.06        2.82297
             Ti 12 -- Ti 20                  0.06        2.82297
             Ti 29 -- Ti 37                  0.06        2.82297
             Ti 25 -- Ti 33                  0.06        2.82297
             Ti 15 -- Ti 23                  0.06        2.82297
             Ti 11 -- Ti 19                  0.06        2.82297
             Ti 31 -- Ti 39                  0.06        2.82297
             Ti 30 -- Ti 38                  0.06        2.82297
             Ti 27 -- Ti 35                  0.06        2.82297
             Ti 26 -- Ti 34                  0.06        2.82297
             Ti 14 -- Ti 22                  0.06        2.82297
             Ti 13 -- Ti 21                  0.06        2.82297
             Ti 10 -- Ti 18                  0.06        2.82297
             Ti 9  -- Ti 17                  0.06        2.82297
             Ti 32 -- Ti 40                  0.06        2.82297
             Ti 28 -- Ti 36                  0.06        2.82297
             Ti 22 -- Ti 46                  0.06        2.82297
             Ti 18 -- Ti 42                  0.06        2.82297
             Ti 24 -- Ti 48                  0.06        2.82297
             Ti 23 -- Ti 47                  0.06        2.82297
             Ti 21 -- Ti 45                  0.06        2.82297
             Ti 20 -- Ti 44                  0.06        2.82297
             Ti 19 -- Ti 43                  0.06        2.82297
             Ti 17 -- Ti 41                  0.06        2.82297
             Ti 15 -- Ti 47                  0.06        2.82297
             Ti 11 -- Ti 43                  0.06        2.82297
             Ti 8  -- Ti 40                  0.06        2.82297
             Ti 7  -- Ti 31                  0.06        2.82297
             Ti 4  -- Ti 36                  0.06        2.82297
             Ti 3  -- Ti 27                  0.06        2.82297
             Ti 16 -- Ti 48                  0.06        2.82297
             Ti 13 -- Ti 45                  0.06        2.82297
             Ti 12 -- Ti 44                  0.06        2.82297
             Ti 9  -- Ti 41                  0.06        2.82297
             Ti 7  -- Ti 39                  0.06        2.82297
             Ti 3  -- Ti 35                  0.06        2.82297
             Ti 14 -- Ti 46                  0.06        2.82297
             Ti 10 -- Ti 42                  0.06        2.82297
             Ti 8  -- Ti 32                  0.06        2.82297
             Ti 4  -- Ti 28                  0.06        2.82297
             Ti 6  -- Ti 30                  0.06        2.82297
             Ti 5  -- Ti 37                  0.06        2.82297
             Ti 5  -- Ti 29                  0.06        2.82297
             Ti 2  -- Ti 26                  0.06        2.82297
             Ti 6  -- Ti 38                  0.06        2.82297
             Ti 2  -- Ti 34                  0.06        2.82297
             Ti 1  -- Ti 25                  0.06        2.82687
             Al 9  -- Ti 1                   0.22        2.83639
             Al 8  -- Ti 16                  0.22        2.84153
             Al 16 -- Ti 40                  0.22        2.84153
             Al 15 -- Ti 39                  0.22        2.84153
             Al 7  -- Ti 15                  0.22        2.84153
             Al 4  -- Ti 16                  0.22        2.84153
             Al 4  -- Ti 12                  0.22        2.84153
             Al 16 -- Ti 36                  0.22        2.84153
             Al 15 -- Ti 35                  0.22        2.84153
             Al 12 -- Ti 36                  0.22        2.84153
             Al 11 -- Ti 35                  0.22        2.84153
             Al 3  -- Ti 15                  0.22        2.84153
             Al 3  -- Ti 11                  0.22        2.84153
             Al 8  -- Ti 12                  0.22        2.84153
             Al 12 -- Ti 40                  0.22        2.84153
             Al 11 -- Ti 39                  0.22        2.84153
             Al 7  -- Ti 11                  0.22        2.84153
             Al 13 -- Ti 37                  0.22        2.84153
             Al 5  -- Ti 13                  0.22        2.84153
             Al 14 -- Ti 38                  0.22        2.84153
             Al 13 -- Ti 33                  0.22        2.84153
             Al 9  -- Ti 33                  0.22        2.84153
             Al 6  -- Ti 14                  0.22        2.84153
             Al 1  -- Ti 13                  0.22        2.84153
             Al 1  -- Ti 9                   0.22        2.84153
             Al 14 -- Ti 34                  0.22        2.84153
             Al 10 -- Ti 34                  0.22        2.84153
             Al 9  -- Ti 37                  0.22        2.84153
             Al 2  -- Ti 14                  0.22        2.84153
             Al 2  -- Ti 10                  0.22        2.84153
             Al 5  -- Ti 9                   0.22        2.84153
             Al 10 -- Ti 38                  0.22        2.84153
             Al 6  -- Ti 10                  0.22        2.84153
             Al 7  -- Ti 23                  0.22        2.84153
             Al 15 -- Ti 31                  0.22        2.84153
             Al 8  -- Ti 24                  0.22        2.84153
             Al 3  -- Ti 23                  0.22        2.84153
             Al 3  -- Ti 19                  0.22        2.84153
             Al 16 -- Ti 32                  0.22        2.84153
             Al 15 -- Ti 27                  0.22        2.84153
             Al 11 -- Ti 27                  0.22        2.84153
             Al 4  -- Ti 24                  0.22        2.84153
             Al 4  -- Ti 20                  0.22        2.84153
             Al 16 -- Ti 28                  0.22        2.84153
             Al 12 -- Ti 28                  0.22        2.84153
             Al 11 -- Ti 31                  0.22        2.84153
             Al 8  -- Ti 20                  0.22        2.84153
             Al 7  -- Ti 19                  0.22        2.84153
             Al 12 -- Ti 32                  0.22        2.84153
             Al 6  -- Ti 46                  0.22        2.84153
             Al 5  -- Ti 45                  0.22        2.84153
             Al 2  -- Ti 46                  0.22        2.84153
             Al 2  -- Ti 42                  0.22        2.84153
             Al 1  -- Ti 45                  0.22        2.84153
             Al 1  -- Ti 41                  0.22        2.84153
             Al 6  -- Ti 42                  0.22        2.84153
             Al 5  -- Ti 41                  0.22        2.84153
             Al 14 -- Ti 30                  0.22        2.84153
             Al 6  -- Ti 22                  0.22        2.84153
             Al 13 -- Ti 29                  0.22        2.84153
             Al 5  -- Ti 21                  0.22        2.84153
             Al 14 -- Ti 26                  0.22        2.84153
             Al 10 -- Ti 26                  0.22        2.84153
             Al 2  -- Ti 22                  0.22        2.84153
             Al 2  -- Ti 18                  0.22        2.84153
             Al 13 -- Ti 25                  0.22        2.84153
             Al 9  -- Ti 25                  0.22        2.84153
             Al 6  -- Ti 18                  0.22        2.84153
             Al 1  -- Ti 21                  0.22        2.84153
             Al 1  -- Ti 17                  0.22        2.84153
             Al 10 -- Ti 30                  0.22        2.84153
             Al 9  -- Ti 29                  0.22        2.84153
             Al 5  -- Ti 17                  0.22        2.84153
             Al 14 -- Ti 6                   0.22        2.84153
             Al 13 -- Ti 5                   0.22        2.84153
             Al 16 -- Ti 8                   0.22        2.84153
             Al 15 -- Ti 7                   0.22        2.84153
             Al 8  -- Ti 48                  0.22        2.84153
             Al 7  -- Ti 47                  0.22        2.84153
             Al 14 -- Ti 2                   0.22        2.84153
             Al 10 -- Ti 2                   0.22        2.84153
             Al 16 -- Ti 4                   0.22        2.84153
             Al 15 -- Ti 3                   0.22        2.84153
             Al 12 -- Ti 4                   0.22        2.84153
             Al 11 -- Ti 3                   0.22        2.84153
             Al 10 -- Ti 6                   0.22        2.84153
             Al 9  -- Ti 5                   0.22        2.84153
             Al 4  -- Ti 48                  0.22        2.84153
             Al 4  -- Ti 44                  0.22        2.84153
             Al 3  -- Ti 47                  0.22        2.84153
             Al 3  -- Ti 43                  0.22        2.84153
             Al 12 -- Ti 8                   0.22        2.84153
             Al 11 -- Ti 7                   0.22        2.84153
             Al 8  -- Ti 44                  0.22        2.84153
             Al 7  -- Ti 43                  0.22        2.84153
             Al 13 -- Ti 1                   0.22        2.84670
             Ti 1  -- Ti 10                  0.11        2.86766
             Al 2  -- Ti 1                   0.23        2.86782
             Al 8  -- Ti 30                  0.23        2.87558
             Al 4  -- Ti 26                  0.23        2.87558
             Al 7  -- Ti 29                  0.23        2.87558
             Al 3  -- Ti 25                  0.23        2.87558
             Al 16 -- Ti 22                  0.23        2.87558
             Al 15 -- Ti 21                  0.23        2.87558
             Al 12 -- Ti 18                  0.23        2.87558
             Al 11 -- Ti 17                  0.23        2.87558
             Al 6  -- Ti 5                   0.23        2.87558
             Al 5  -- Ti 6                   0.23        2.87558
             Al 1  -- Ti 2                   0.23        2.87558
             Al 8  -- Ti 7                   0.23        2.87558
             Al 4  -- Ti 3                   0.23        2.87558
             Al 15 -- Ti 48                  0.23        2.87558
             Al 11 -- Ti 44                  0.23        2.87558
             Al 7  -- Ti 8                   0.23        2.87558
             Al 3  -- Ti 4                   0.23        2.87558
             Al 13 -- Ti 46                  0.23        2.87558
             Al 9  -- Ti 42                  0.23        2.87558
             Al 16 -- Ti 47                  0.23        2.87558
             Al 12 -- Ti 43                  0.23        2.87558
             Al 14 -- Ti 45                  0.23        2.87558
             Al 10 -- Ti 41                  0.23        2.87558
             Al 14 -- Ti 24                  0.23        2.87558
             Al 13 -- Ti 23                  0.23        2.87558
             Al 10 -- Ti 20                  0.23        2.87558
             Al 9  -- Ti 19                  0.23        2.87558
             Al 5  -- Ti 31                  0.23        2.87558
             Al 1  -- Ti 27                  0.23        2.87558
             Al 6  -- Ti 32                  0.23        2.87558
             Al 2  -- Ti 28                  0.23        2.87558
             Ti 1  -- Ti 17                  0.11        2.87558
             Al 7  -- Ti 37                  0.23        2.87558
             Al 3  -- Ti 33                  0.23        2.87558
             Al 8  -- Ti 38                  0.23        2.87558
             Al 4  -- Ti 34                  0.23        2.87558
             Al 16 -- Ti 14                  0.23        2.87558
             Al 15 -- Ti 13                  0.23        2.87558
             Al 12 -- Ti 10                  0.23        2.87558
             Al 11 -- Ti 9                   0.23        2.87558
             Al 13 -- Ti 14                  0.23        2.87558
             Al 9  -- Ti 10                  0.23        2.87558
             Al 6  -- Ti 37                  0.23        2.87558
             Al 2  -- Ti 33                  0.23        2.87558
             Al 8  -- Ti 39                  0.23        2.87558
             Al 4  -- Ti 35                  0.23        2.87558
             Al 15 -- Ti 16                  0.23        2.87558
             Al 14 -- Ti 13                  0.23        2.87558
             Al 11 -- Ti 12                  0.23        2.87558
             Al 10 -- Ti 9                   0.23        2.87558
             Al 5  -- Ti 38                  0.23        2.87558
             Al 1  -- Ti 34                  0.23        2.87558
             Al 16 -- Ti 15                  0.23        2.87558
             Al 12 -- Ti 11                  0.23        2.87558
             Al 7  -- Ti 40                  0.23        2.87558
             Al 3  -- Ti 36                  0.23        2.87558
             Al 14 -- Ti 16                  0.23        2.87558
             Al 10 -- Ti 12                  0.23        2.87558
             Al 13 -- Ti 15                  0.23        2.87558
             Al 9  -- Ti 11                  0.23        2.87558
             Al 6  -- Ti 40                  0.23        2.87558
             Al 5  -- Ti 39                  0.23        2.87558
             Al 2  -- Ti 36                  0.23        2.87558
             Al 1  -- Ti 35                  0.23        2.87558
             Al 6  -- Ti 6                   0.23        2.87559
             Al 5  -- Ti 5                   0.23        2.87559
             Al 2  -- Ti 2                   0.23        2.87559
             Al 14 -- Ti 46                  0.23        2.87559
             Al 10 -- Ti 42                  0.23        2.87559
             Al 16 -- Ti 48                  0.23        2.87559
             Al 12 -- Ti 44                  0.23        2.87559
             Al 15 -- Ti 47                  0.23        2.87559
             Al 13 -- Ti 45                  0.23        2.87559
             Al 11 -- Ti 43                  0.23        2.87559
             Al 9  -- Ti 41                  0.23        2.87559
             Al 7  -- Ti 7                   0.23        2.87559
             Al 3  -- Ti 3                   0.23        2.87559
             Al 8  -- Ti 8                   0.23        2.87559
             Al 4  -- Ti 4                   0.23        2.87559
             Al 14 -- Ti 22                  0.23        2.87559
             Al 13 -- Ti 21                  0.23        2.87559
             Al 10 -- Ti 18                  0.23        2.87559
             Al 9  -- Ti 17                  0.23        2.87559
             Al 6  -- Ti 30                  0.23        2.87559
             Al 5  -- Ti 29                  0.23        2.87559
             Al 2  -- Ti 26                  0.23        2.87559
             Al 1  -- Ti 25                  0.23        2.87559
             Al 8  -- Ti 32                  0.23        2.87559
             Al 7  -- Ti 31                  0.23        2.87559
             Al 4  -- Ti 28                  0.23        2.87559
             Al 3  -- Ti 27                  0.23        2.87559
             Al 16 -- Ti 24                  0.23        2.87559
             Al 15 -- Ti 23                  0.23        2.87559
             Al 12 -- Ti 20                  0.23        2.87559
             Al 11 -- Ti 19                  0.23        2.87559
             Ti 32 -- Ti 48                  0.11        2.87670
             Ti 5  -- Ti 14                  0.11        2.87670
             Ti 28 -- Ti 48                  0.11        2.87670
             Ti 28 -- Ti 44                  0.11        2.87670
             Ti 5  -- Ti 21                  0.11        2.87670
             Ti 39 -- Ti 48                  0.11        2.87670
             Ti 32 -- Ti 44                  0.11        2.87670
             Ti 31 -- Ti 47                  0.11        2.87670
             Ti 7  -- Ti 23                  0.11        2.87670
             Ti 7  -- Ti 16                  0.11        2.87670
             Ti 6  -- Ti 22                  0.11        2.87670
             Ti 40 -- Ti 47                  0.11        2.87670
             Ti 8  -- Ti 24                  0.11        2.87670
             Ti 8  -- Ti 15                  0.11        2.87670
             Ti 6  -- Ti 13                  0.11        2.87670
             Ti 5  -- Ti 10                  0.11        2.87670
             Ti 35 -- Ti 48                  0.11        2.87670
             Ti 35 -- Ti 44                  0.11        2.87670
             Ti 27 -- Ti 47                  0.11        2.87670
             Ti 27 -- Ti 43                  0.11        2.87670
             Ti 3  -- Ti 23                  0.11        2.87670
             Ti 3  -- Ti 19                  0.11        2.87670
             Ti 3  -- Ti 16                  0.11        2.87670
             Ti 3  -- Ti 12                  0.11        2.87670
             Ti 2  -- Ti 22                  0.11        2.87670
             Ti 2  -- Ti 18                  0.11        2.87670
             Ti 39 -- Ti 44                  0.11        2.87670
             Ti 36 -- Ti 47                  0.11        2.87670
             Ti 36 -- Ti 43                  0.11        2.87670
             Ti 7  -- Ti 19                  0.11        2.87670
             Ti 7  -- Ti 12                  0.11        2.87670
             Ti 6  -- Ti 18                  0.11        2.87670
             Ti 5  -- Ti 17                  0.10        2.87670
             Ti 4  -- Ti 24                  0.11        2.87670
             Ti 4  -- Ti 20                  0.11        2.87670
             Ti 4  -- Ti 15                  0.11        2.87670
             Ti 4  -- Ti 11                  0.11        2.87670
             Ti 2  -- Ti 13                  0.11        2.87670
             Ti 2  -- Ti 9                   0.11        2.87670
             Ti 40 -- Ti 43                  0.11        2.87670
             Ti 31 -- Ti 43                  0.11        2.87670
             Ti 8  -- Ti 20                  0.11        2.87670
             Ti 8  -- Ti 11                  0.11        2.87670
             Ti 6  -- Ti 9                   0.11        2.87670
             Ti 24 -- Ti 38                  0.11        2.87670
             Ti 23 -- Ti 37                  0.11        2.87670
             Ti 16 -- Ti 30                  0.11        2.87670
             Ti 15 -- Ti 29                  0.11        2.87670
             Ti 22 -- Ti 40                  0.11        2.87670
             Ti 21 -- Ti 39                  0.11        2.87670
             Ti 14 -- Ti 32                  0.11        2.87670
             Ti 13 -- Ti 31                  0.11        2.87670
             Ti 24 -- Ti 34                  0.11        2.87670
             Ti 23 -- Ti 33                  0.11        2.87670
             Ti 20 -- Ti 34                  0.11        2.87670
             Ti 19 -- Ti 33                  0.11        2.87670
             Ti 16 -- Ti 26                  0.11        2.87670
             Ti 15 -- Ti 25                  0.11        2.87670
             Ti 12 -- Ti 26                  0.11        2.87670
             Ti 11 -- Ti 25                  0.11        2.87670
             Ti 22 -- Ti 36                  0.11        2.87670
             Ti 21 -- Ti 35                  0.11        2.87670
             Ti 20 -- Ti 38                  0.11        2.87670
             Ti 19 -- Ti 37                  0.11        2.87670
             Ti 18 -- Ti 36                  0.11        2.87670
             Ti 17 -- Ti 35                  0.11        2.87670
             Ti 14 -- Ti 28                  0.11        2.87670
             Ti 13 -- Ti 27                  0.10        2.87670
             Ti 12 -- Ti 30                  0.11        2.87670
             Ti 11 -- Ti 29                  0.11        2.87670
             Ti 10 -- Ti 28                  0.10        2.87670
             Ti 9  -- Ti 27                  0.11        2.87670
             Ti 18 -- Ti 40                  0.11        2.87670
             Ti 17 -- Ti 39                  0.11        2.87670
             Ti 10 -- Ti 32                  0.11        2.87670
             Ti 9  -- Ti 31                  0.11        2.87670
             Ti 30 -- Ti 46                  0.11        2.87670
             Ti 29 -- Ti 45                  0.11        2.87670
             Ti 26 -- Ti 46                  0.11        2.87670
             Ti 26 -- Ti 42                  0.11        2.87670
             Ti 38 -- Ti 45                  0.11        2.87670
             Ti 37 -- Ti 46                  0.11        2.87670
             Ti 30 -- Ti 42                  0.11        2.87670
             Ti 25 -- Ti 45                  0.11        2.87670
             Ti 25 -- Ti 41                  0.11        2.87670
             Ti 34 -- Ti 45                  0.11        2.87670
             Ti 34 -- Ti 41                  0.11        2.87670
             Ti 33 -- Ti 46                  0.11        2.87670
             Ti 33 -- Ti 42                  0.10        2.87670
             Ti 29 -- Ti 41                  0.11        2.87670
             Ti 38 -- Ti 41                  0.11        2.87670
             Ti 37 -- Ti 42                  0.11        2.87670
             Ti 1  -- Ti 14                  0.10        2.87785
             Al 1  -- Ti 1                   0.23        2.88336
             Ti 1  -- Ti 21                  0.11        2.88575
             Ti 1  -- Ti 28                  0.14        2.92401
             Ti 7  -- Ti 30                  0.14        2.92788
             Ti 3  -- Ti 26                  0.14        2.92788
             Ti 14 -- Ti 48                  0.14        2.92788
             Ti 10 -- Ti 44                  0.14        2.92788
             Ti 8  -- Ti 29                  0.14        2.92788
             Ti 5  -- Ti 32                  0.14        2.92788
             Ti 4  -- Ti 25                  0.14        2.92788
             Ti 8  -- Ti 38                  0.14        2.92788
             Ti 7  -- Ti 37                  0.14        2.92788
             Ti 6  -- Ti 40                  0.14        2.92788
             Ti 5  -- Ti 39                  0.14        2.92788
             Ti 4  -- Ti 34                  0.14        2.92788
             Ti 3  -- Ti 33                  0.14        2.92788
             Ti 2  -- Ti 36                  0.14        2.92788
             Ti 21 -- Ti 48                  0.14        2.92788
             Ti 17 -- Ti 44                  0.14        2.92788
             Ti 13 -- Ti 47                  0.14        2.92788
             Ti 9  -- Ti 43                  0.14        2.92788
             Ti 22 -- Ti 47                  0.14        2.92788
             Ti 18 -- Ti 43                  0.14        2.92788
             Ti 6  -- Ti 31                  0.14        2.92788
             Ti 2  -- Ti 27                  0.14        2.92788
             Ti 32 -- Ti 39                  0.14        2.92788
             Ti 28 -- Ti 35                  0.14        2.92788
             Ti 14 -- Ti 21                  0.14        2.92788
             Ti 10 -- Ti 17                  0.14        2.92788
             Ti 30 -- Ti 37                  0.14        2.92788
             Ti 26 -- Ti 33                  0.14        2.92788
             Ti 16 -- Ti 23                  0.14        2.92788
             Ti 12 -- Ti 19                  0.14        2.92788
             Ti 31 -- Ti 40                  0.14        2.92788
             Ti 29 -- Ti 38                  0.14        2.92788
             Ti 27 -- Ti 36                  0.14        2.92788
             Ti 25 -- Ti 34                  0.14        2.92788
             Ti 13 -- Ti 22                  0.14        2.92788
             Ti 9  -- Ti 18                  0.14        2.92788
             Ti 15 -- Ti 24                  0.14        2.92788
             Ti 11 -- Ti 20                  0.14        2.92788
             Ti 16 -- Ti 46                  0.14        2.92788
             Ti 12 -- Ti 42                  0.14        2.92788
             Ti 24 -- Ti 45                  0.14        2.92788
             Ti 23 -- Ti 46                  0.14        2.92788
             Ti 20 -- Ti 41                  0.14        2.92788
             Ti 19 -- Ti 42                  0.14        2.92788
             Ti 15 -- Ti 45                  0.14        2.92788
             Ti 11 -- Ti 41                  0.14        2.92788
             Ti 1  -- Ti 35                  0.14        2.93178
======================================================================

 
 A BibTeX formatted list of references used in this run has been written to 
 castep.bib
 
Initialisation time =     16.63 s
Calculation time    =   3370.88 s
Finalisation time   =      0.13 s
Total time          =   3387.64 s
Peak Memory Use     = 2292632 kB
  
Overall parallel efficiency rating: Very good (83%)                             
  
Data was distributed by:-
G-vector (3-way); efficiency rating: Very good (84%)                            
k-point (14-way); efficiency rating: Excellent (98%)                            
 +-------------------------------------------------+
 |                                                 |
 |      CCC   AA    SSS  TTTTT  EEEEE  PPPP        |
 |     C     A  A  S       T    E      P   P       |
 |     C     AAAA   SS     T    EEE    PPPP        |
 |     C     A  A     S    T    E      P           |
 |      CCC  A  A  SSS     T    EEEEE  P           |
 |                                                 |
 +-------------------------------------------------+
 |                                                 |
 | Welcome to Academic Release CASTEP version 17.21|          
 | Ab Initio Total Energy Program                  |
 |                                                 |
 | Authors:                                        |
 | M. Segall, M. Probert, C. Pickard, P. Hasnip,   |
 | S. Clark, K. Refson, J. R. Yates, M. Payne      |
 |                                                 |
 | Contributors:                                   |
 | P. Lindan, P. Haynes, J. White, V. Milman,      |
 | N. Govind, M. Gibson, P. Tulip, V. Cocula,      |
 | B. Montanari, D. Quigley, M. Glover,            |
 | L. Bernasconi, A. Perlov, M. Plummer,           |
 | E. McNellis, J. Meyer, J. Gale, D. Jochym       |
 | J. Aarons, B. Walker, R. Gillen, D. Jones       |
 | T. Green, I. J. Bush, C. J. Armstrong,          |
 | E. J. Higgins, E. L. Brown, M. S. McFly,        |
 | J. Wilkins, B-C. Shih, P. J. P. Byrne           |
 |                                                 |
 | Copyright (c) 2000 - 2017                       |
 |                                                 |
 |     Distributed under the terms of an           |
 |     Agreement between the United Kingdom        |
 |     Car-Parrinello (UKCP) Consortium,           |
 |     Daresbury Laboratory and Accelrys, Inc.     |
 |                                                 |
 | Please cite                                     |
 |                                                 |
 |     "First principles methods using CASTEP"     |
 |                                                 |
 |         Zeitschrift fuer Kristallographie       |
 |           220(5-6) pp. 567-570 (2005)           |
 |                                                 |
 | S. J. Clark, M. D. Segall, C. J. Pickard,       |
 | P. J. Hasnip, M. J. Probert, K. Refson,         |
 | M. C. Payne                                     |
 |                                                 |
 |       in all publications arising from          |
 |              your use of CASTEP                 |
 |                                                 |
 +-------------------------------------------------+


 Compiled for linux_x86_64_gfortran6.0-XT on Fri, 21 Jul 2017 10:20:05 +0100
 from code version 056e886bd5a1+ Castep172_branch Mon, 15 May 2017 14:45:35 +0100
 Compiler: GNU Fortran 6.3.0; Optimisation: fast
 MATHLIBS: Intel MKL(2017.0.0) (LAPACK version 3.6.0)
 FFT Lib : fftw3 version commercial-fftw-3.3.4-sse2-avx
 Fundamental constants values: CODATA 2010

 Run started: Thu, 31 Oct 2019 12:02:35 +0000

 Atomic calculation performed for Al: 1s2 2s2 2p6 3s2 3p1

 Converged in 55 iterations to an ae energy of -6578.725 eV

   ============================================================                
   | Pseudopotential Report - Date of generation 31-10-2019   |                
   ------------------------------------------------------------                
   | Element: Al Ionic charge:  3.00 Level of theory: LDA     |                
   | Atomic Solver: Koelling-Harmon                           |                
   |                                                          |                
   |               Reference Electronic Structure             |                
   |         Orbital         Occupation         Energy        |                
   |            3s              2.000           -0.288        |                
   |            3p              1.000           -0.102        |                
   |                                                          |                
   |                 Pseudopotential Definition               |                
   |        Beta     l      e      Rc     scheme   norm       |                
   |          1      0   -0.288   2.192     qc      0         |                
   |          2      0    0.250   2.192     qc      0         |                
   |          3      1   -0.102   2.192     qc      0         |                
   |          4      1    0.250   2.192     qc      0         |                
   |          5      2    0.000   2.000     qc      0         |                
   |          6      2    0.250   2.000     qc      0         |                
   |         loc     3    0.000   2.192     pn      0         |                
   |                                                          |                
   | Augmentation charge Rinner = 1.398                       |                
   | Partial core correction Rc = 1.398                       |                
   ------------------------------------------------------------                
   | "3|2.2|2.2|1.4|4|5|5|30:31:32U2U2"                       |                
   ------------------------------------------------------------                
   |      Author: Chris J. Pickard, Cambridge University      |                
   ============================================================                

 Atomic calculation performed for Ti: 1s2 2s2 2p6 3s2 3p6 3d2 4s2

 Converged in 78 iterations to an ae energy of -23176.516 eV

   ============================================================                
   | Pseudopotential Report - Date of generation 31-10-2019   |                
   ------------------------------------------------------------                
   | Element: Ti Ionic charge: 12.00 Level of theory: LDA     |                
   | Atomic Solver: Koelling-Harmon                           |                
   |                                                          |                
   |               Reference Electronic Structure             |                
   |         Orbital         Occupation         Energy        |                
   |            3s              2.000           -2.288        |                
   |            3p              6.000           -1.425        |                
   |            4s              2.000           -0.169        |                
   |            3d              2.000           -0.164        |                
   |                                                          |                
   |                 Pseudopotential Definition               |                
   |        Beta     l      e      Rc     scheme   norm       |                
   |          1      0   -2.288   1.793     qc      0         |                
   |          2      0   -0.169   1.793     qc      0         |                
   |          3      0    0.250   1.793     qc      0         |                
   |          4      1   -1.425   1.793     qc      0         |                
   |          5      1    0.250   1.793     qc      0         |                
   |          6      2   -0.164   1.793     qc      0         |                
   |          7      2    0.250   1.793     qc      0         |                
   |         loc     3    0.000   1.793     pn      0         |                
   |                                                          |                
   | Augmentation charge Rinner = 1.263                       |                
   | Partial core correction Rc = 1.263                       |                
   ------------------------------------------------------------                
   | "3|1.8|9|10|11|30U:40:31:32(qc=5.5)"                     |                
   ------------------------------------------------------------                
   |      Author: Chris J. Pickard, Cambridge University      |                
   ============================================================                

 Pseudo atomic calculation performed for Al 3s2 3p1

 Converged in 15 iterations to a total energy of -105.5952 eV


 Pseudo atomic calculation performed for Ti 3s2 3p6 3d2 4s2

 Converged in 31 iterations to a total energy of -1585.9998 eV

 Calculation parallelised over 42 processes.
 Data is distributed by G-vector(3-way) and k-point(14-way)

 ************************************ Title ************************************
 

 ***************************** General Parameters ******************************
  
 output verbosity                               : normal  (1)
 write checkpoint data to                       : castep.check
 type of calculation                            : single point energy
 stress calculation                             : on
 density difference calculation                 : off
 electron localisation func (ELF) calculation   : off
 Hirshfeld analysis                             : off
 unlimited duration calculation
 timing information                             : on
 memory usage estimate                          : on
 write final potential to formatted file        : off
 write final density to formatted file          : off
 write BibTeX reference list                    : on
 write OTFG pseudopotential files               : on
 write electrostatic potential file             : on
 write bands file                               : on
 checkpoint writing                             : off
  
 output         length unit                     : A
 output           mass unit                     : amu
 output           time unit                     : ps
 output         charge unit                     : e
 output           spin unit                     : hbar/2
 output         energy unit                     : eV
 output          force unit                     : eV/A
 output       velocity unit                     : A/ps
 output       pressure unit                     : GPa
 output     inv_length unit                     : 1/A
 output      frequency unit                     : cm-1
 output force constant unit                     : eV/A**2
 output         volume unit                     : A**3
 output   IR intensity unit                     : (D/A)**2/amu
 output         dipole unit                     : D
 output         efield unit                     : eV/A/e
 output        entropy unit                     : J/mol/K
  
 wavefunctions paging                           : none
 random number generator seed                   : randomised (120236237)
 data distribution                              : optimal for this architecture
 optimization strategy                          : maximize speed(+++)

 *********************** Exchange-Correlation Parameters ***********************
  
 using functional                               : Local Density Approximation
 relativistic treatment                         : Koelling-Harmon
 DFT+D: Semi-empirical dispersion correction    : off

 ************************* Pseudopotential Parameters **************************
  
 pseudopotential representation                 : reciprocal space
 <beta|phi> representation                      : reciprocal space
 spin-orbit coupling                            : off

 **************************** Basis Set Parameters *****************************
  
 plane wave basis set cut-off                   :   600.0000   eV
 size of standard grid                          :     1.7500
 size of   fine   gmax                          :    21.9610   1/A
 finite basis set correction                    : automatic
 number of sample energies                      :          3
           sample  spacing                      :     5.0000   eV

 **************************** Electronic Parameters ****************************
  
 number of  electrons                           :  624.0    
 net charge of system                           :  0.000    
 treating system as non-spin-polarized
 number of bands                                :        374

 ********************* Electronic Minimization Parameters **********************
  
[...]
             Al 15 -- Ti 27                  0.22        2.84153
             Al 11 -- Ti 27                  0.22        2.84153
             Al 4  -- Ti 24                  0.22        2.84153
             Al 4  -- Ti 20                  0.22        2.84153
             Al 16 -- Ti 28                  0.22        2.84153
             Al 12 -- Ti 28                  0.22        2.84153
             Al 11 -- Ti 31                  0.22        2.84153
             Al 8  -- Ti 20                  0.22        2.84153
             Al 7  -- Ti 19                  0.22        2.84153
             Al 12 -- Ti 32                  0.22        2.84153
             Al 6  -- Ti 46                  0.22        2.84153
             Al 5  -- Ti 45                  0.22        2.84153
             Al 2  -- Ti 46                  0.22        2.84153
             Al 2  -- Ti 42                  0.22        2.84153
             Al 1  -- Ti 45                  0.22        2.84153
             Al 1  -- Ti 41                  0.22        2.84153
             Al 6  -- Ti 42                  0.22        2.84153
             Al 5  -- Ti 41                  0.22        2.84153
             Al 14 -- Ti 30                  0.22        2.84153
             Al 6  -- Ti 22                  0.22        2.84153
             Al 13 -- Ti 29                  0.22        2.84153
             Al 5  -- Ti 21                  0.22        2.84153
             Al 14 -- Ti 26                  0.22        2.84153
             Al 10 -- Ti 26                  0.22        2.84153
             Al 2  -- Ti 22                  0.22        2.84153
             Al 2  -- Ti 18                  0.22        2.84153
             Al 13 -- Ti 25                  0.22        2.84153
             Al 9  -- Ti 25                  0.22        2.84153
             Al 6  -- Ti 18                  0.22        2.84153
             Al 1  -- Ti 21                  0.22        2.84153
             Al 1  -- Ti 17                  0.22        2.84153
             Al 10 -- Ti 30                  0.22        2.84153
             Al 9  -- Ti 29                  0.22        2.84153
             Al 5  -- Ti 17                  0.22        2.84153
             Al 14 -- Ti 6                   0.22        2.84153
             Al 13 -- Ti 5                   0.22        2.84153
             Al 16 -- Ti 8                   0.22        2.84153
             Al 15 -- Ti 7                   0.22        2.84153
             Al 8  -- Ti 48                  0.22        2.84153
             Al 7  -- Ti 47                  0.22        2.84153
             Al 14 -- Ti 2                   0.22        2.84153
             Al 10 -- Ti 2                   0.22        2.84153
             Al 16 -- Ti 4                   0.22        2.84153
             Al 15 -- Ti 3                   0.22        2.84153
             Al 12 -- Ti 4                   0.22        2.84153
             Al 11 -- Ti 3                   0.22        2.84153
             Al 10 -- Ti 6                   0.22        2.84153
             Al 9  -- Ti 5                   0.22        2.84153
             Al 4  -- Ti 48                  0.22        2.84153
             Al 4  -- Ti 44                  0.22        2.84153
             Al 3  -- Ti 47                  0.22        2.84153
             Al 3  -- Ti 43                  0.22        2.84153
             Al 12 -- Ti 8                   0.22        2.84153
             Al 11 -- Ti 7                   0.22        2.84153
             Al 8  -- Ti 44                  0.22        2.84153
             Al 7  -- Ti 43                  0.22        2.84153
             Al 13 -- Ti 1                   0.22        2.84651
             Al 9  -- Ti 1                   0.22        2.84651
             Al 1  -- Ti 1                   0.23        2.87051
             Ti 1  -- Ti 21                  0.11        2.87162
             Ti 1  -- Ti 17                  0.11        2.87162
             Al 8  -- Ti 30                  0.23        2.87558
             Al 4  -- Ti 26                  0.23        2.87558
             Al 7  -- Ti 29                  0.23        2.87558
             Al 3  -- Ti 25                  0.23        2.87558
             Al 16 -- Ti 22                  0.23        2.87558
             Al 15 -- Ti 21                  0.23        2.87558
             Al 12 -- Ti 18                  0.23        2.87558
             Al 11 -- Ti 17                  0.23        2.87558
             Al 6  -- Ti 5                   0.23        2.87558
             Al 5  -- Ti 6                   0.23        2.87558
             Al 1  -- Ti 2                   0.23        2.87558
             Al 8  -- Ti 7                   0.23        2.87558
             Al 4  -- Ti 3                   0.23        2.87558
             Al 15 -- Ti 48                  0.23        2.87558
             Al 11 -- Ti 44                  0.23        2.87558
             Al 7  -- Ti 8                   0.23        2.87558
             Al 3  -- Ti 4                   0.23        2.87558
             Al 13 -- Ti 46                  0.23        2.87558
             Al 9  -- Ti 42                  0.23        2.87558
             Al 16 -- Ti 47                  0.23        2.87558
             Al 12 -- Ti 43                  0.23        2.87558
             Al 14 -- Ti 45                  0.23        2.87558
             Al 10 -- Ti 41                  0.23        2.87558
             Al 14 -- Ti 24                  0.23        2.87558
             Al 13 -- Ti 23                  0.23        2.87558
             Al 10 -- Ti 20                  0.23        2.87558
             Al 9  -- Ti 19                  0.23        2.87558
             Al 5  -- Ti 31                  0.23        2.87558
             Al 1  -- Ti 27                  0.23        2.87558
             Al 6  -- Ti 32                  0.23        2.87558
             Al 2  -- Ti 28                  0.23        2.87558
             Al 7  -- Ti 37                  0.23        2.87558
             Al 3  -- Ti 33                  0.23        2.87558
             Al 8  -- Ti 38                  0.23        2.87558
             Al 4  -- Ti 34                  0.23        2.87558
             Al 16 -- Ti 14                  0.23        2.87558
             Al 15 -- Ti 13                  0.23        2.87558
             Al 12 -- Ti 10                  0.23        2.87558
             Al 11 -- Ti 9                   0.23        2.87558
             Al 13 -- Ti 14                  0.23        2.87558
             Al 9  -- Ti 10                  0.23        2.87558
             Al 6  -- Ti 37                  0.23        2.87558
             Al 2  -- Ti 33                  0.23        2.87558
             Al 8  -- Ti 39                  0.23        2.87558
             Al 4  -- Ti 35                  0.23        2.87558
             Al 15 -- Ti 16                  0.23        2.87558
             Al 14 -- Ti 13                  0.23        2.87558
             Al 11 -- Ti 12                  0.23        2.87558
             Al 10 -- Ti 9                   0.23        2.87558
             Al 5  -- Ti 38                  0.23        2.87558
             Al 1  -- Ti 34                  0.23        2.87558
             Al 16 -- Ti 15                  0.23        2.87558
             Al 12 -- Ti 11                  0.23        2.87558
             Al 7  -- Ti 40                  0.23        2.87558
             Al 3  -- Ti 36                  0.23        2.87558
             Al 14 -- Ti 16                  0.23        2.87558
             Al 10 -- Ti 12                  0.23        2.87558
             Al 13 -- Ti 15                  0.23        2.87558
             Al 9  -- Ti 11                  0.23        2.87558
             Al 6  -- Ti 40                  0.23        2.87558
             Al 5  -- Ti 39                  0.23        2.87558
             Al 2  -- Ti 36                  0.23        2.87558
             Al 1  -- Ti 35                  0.23        2.87558
             Al 6  -- Ti 6                   0.23        2.87559
             Al 5  -- Ti 5                   0.23        2.87559
             Al 2  -- Ti 2                   0.23        2.87559
             Al 14 -- Ti 46                  0.23        2.87559
             Al 10 -- Ti 42                  0.23        2.87559
             Al 16 -- Ti 48                  0.23        2.87559
             Al 12 -- Ti 44                  0.23        2.87559
             Al 15 -- Ti 47                  0.23        2.87559
             Al 13 -- Ti 45                  0.23        2.87559
             Al 11 -- Ti 43                  0.23        2.87559
             Al 9  -- Ti 41                  0.23        2.87559
             Al 7  -- Ti 7                   0.23        2.87559
             Al 3  -- Ti 3                   0.23        2.87559
             Al 8  -- Ti 8                   0.23        2.87559
             Al 4  -- Ti 4                   0.23        2.87559
             Al 14 -- Ti 22                  0.23        2.87559
             Al 13 -- Ti 21                  0.23        2.87559
             Al 10 -- Ti 18                  0.23        2.87559
             Al 9  -- Ti 17                  0.23        2.87559
             Al 6  -- Ti 30                  0.23        2.87559
             Al 5  -- Ti 29                  0.23        2.87559
             Al 2  -- Ti 26                  0.23        2.87559
             Al 1  -- Ti 25                  0.23        2.87559
             Al 8  -- Ti 32                  0.23        2.87559
             Al 7  -- Ti 31                  0.23        2.87559
             Al 4  -- Ti 28                  0.23        2.87559
             Al 3  -- Ti 27                  0.23        2.87559
             Al 16 -- Ti 24                  0.23        2.87559
             Al 15 -- Ti 23                  0.23        2.87559
             Al 12 -- Ti 20                  0.23        2.87559
             Al 11 -- Ti 19                  0.23        2.87559
             Ti 32 -- Ti 48                  0.11        2.87670
             Ti 5  -- Ti 14                  0.11        2.87670
             Ti 28 -- Ti 48                  0.10        2.87670
             Ti 28 -- Ti 44                  0.10        2.87670
             Ti 5  -- Ti 21                  0.11        2.87670
             Ti 39 -- Ti 48                  0.11        2.87670
             Ti 32 -- Ti 44                  0.11        2.87670
             Ti 31 -- Ti 47                  0.11        2.87670
             Ti 7  -- Ti 23                  0.11        2.87670
             Ti 7  -- Ti 16                  0.11        2.87670
             Ti 6  -- Ti 22                  0.11        2.87670
             Ti 40 -- Ti 47                  0.11        2.87670
             Ti 8  -- Ti 24                  0.11        2.87670
             Ti 8  -- Ti 15                  0.11        2.87670
             Ti 6  -- Ti 13                  0.11        2.87670
             Ti 5  -- Ti 10                  0.11        2.87670
             Ti 35 -- Ti 48                  0.10        2.87670
             Ti 35 -- Ti 44                  0.10        2.87670
             Ti 27 -- Ti 47                  0.11        2.87670
             Ti 27 -- Ti 43                  0.11        2.87670
             Ti 3  -- Ti 23                  0.11        2.87670
             Ti 3  -- Ti 19                  0.11        2.87670
             Ti 3  -- Ti 16                  0.11        2.87670
             Ti 3  -- Ti 12                  0.11        2.87670
             Ti 2  -- Ti 22                  0.11        2.87670
             Ti 2  -- Ti 18                  0.11        2.87670
             Ti 39 -- Ti 44                  0.11        2.87670
             Ti 36 -- Ti 47                  0.11        2.87670
             Ti 36 -- Ti 43                  0.11        2.87670
             Ti 7  -- Ti 19                  0.11        2.87670
             Ti 7  -- Ti 12                  0.11        2.87670
             Ti 6  -- Ti 18                  0.11        2.87670
             Ti 5  -- Ti 17                  0.11        2.87670
             Ti 4  -- Ti 24                  0.11        2.87670
             Ti 4  -- Ti 20                  0.11        2.87670
             Ti 4  -- Ti 15                  0.11        2.87670
             Ti 4  -- Ti 11                  0.11        2.87670
             Ti 2  -- Ti 13                  0.11        2.87670
             Ti 2  -- Ti 9                   0.11        2.87670
             Ti 40 -- Ti 43                  0.11        2.87670
             Ti 31 -- Ti 43                  0.11        2.87670
             Ti 8  -- Ti 20                  0.11        2.87670
             Ti 8  -- Ti 11                  0.11        2.87670
             Ti 6  -- Ti 9                   0.11        2.87670
             Ti 24 -- Ti 38                  0.11        2.87670
             Ti 23 -- Ti 37                  0.11        2.87670
             Ti 16 -- Ti 30                  0.11        2.87670
             Ti 15 -- Ti 29                  0.11        2.87670
             Ti 22 -- Ti 40                  0.11        2.87670
             Ti 21 -- Ti 39                  0.11        2.87670
             Ti 14 -- Ti 32                  0.11        2.87670
             Ti 13 -- Ti 31                  0.11        2.87670
             Ti 24 -- Ti 34                  0.11        2.87670
             Ti 23 -- Ti 33                  0.11        2.87670
             Ti 20 -- Ti 34                  0.11        2.87670
             Ti 19 -- Ti 33                  0.11        2.87670
             Ti 16 -- Ti 26                  0.11        2.87670
             Ti 15 -- Ti 25                  0.11        2.87670
             Ti 12 -- Ti 26                  0.11        2.87670
             Ti 11 -- Ti 25                  0.11        2.87670
             Ti 22 -- Ti 36                  0.11        2.87670
             Ti 21 -- Ti 35                  0.10        2.87670
             Ti 20 -- Ti 38                  0.11        2.87670
             Ti 19 -- Ti 37                  0.11        2.87670
             Ti 18 -- Ti 36                  0.11        2.87670
             Ti 17 -- Ti 35                  0.10        2.87670
             Ti 14 -- Ti 28                  0.10        2.87670
             Ti 13 -- Ti 27                  0.11        2.87670
             Ti 12 -- Ti 30                  0.11        2.87670
             Ti 11 -- Ti 29                  0.11        2.87670
             Ti 10 -- Ti 28                  0.10        2.87670
             Ti 9  -- Ti 27                  0.11        2.87670
             Ti 18 -- Ti 40                  0.11        2.87670
             Ti 17 -- Ti 39                  0.11        2.87670
             Ti 10 -- Ti 32                  0.11        2.87670
             Ti 9  -- Ti 31                  0.11        2.87670
             Ti 30 -- Ti 46                  0.11        2.87670
             Ti 29 -- Ti 45                  0.11        2.87670
             Ti 26 -- Ti 46                  0.11        2.87670
             Ti 26 -- Ti 42                  0.11        2.87670
             Ti 38 -- Ti 45                  0.11        2.87670
             Ti 37 -- Ti 46                  0.11        2.87670
             Ti 30 -- Ti 42                  0.11        2.87670
             Ti 25 -- Ti 45                  0.11        2.87670
             Ti 25 -- Ti 41                  0.11        2.87670
             Ti 34 -- Ti 45                  0.11        2.87670
             Ti 34 -- Ti 41                  0.11        2.87670
             Ti 33 -- Ti 46                  0.11        2.87670
             Ti 33 -- Ti 42                  0.11        2.87670
             Ti 29 -- Ti 41                  0.11        2.87670
             Ti 38 -- Ti 41                  0.11        2.87670
             Ti 37 -- Ti 42                  0.11        2.87670
             Ti 1  -- Ti 14                  0.11        2.87672
             Ti 1  -- Ti 10                  0.11        2.87672
             Al 2  -- Ti 1                   0.23        2.88050
             Ti 1  -- Ti 35                  0.14        2.91788
             Ti 1  -- Ti 28                  0.14        2.92289
             Ti 7  -- Ti 30                  0.14        2.92788
             Ti 3  -- Ti 26                  0.14        2.92788
             Ti 14 -- Ti 48                  0.14        2.92788
             Ti 10 -- Ti 44                  0.14        2.92788
             Ti 8  -- Ti 29                  0.14        2.92788
             Ti 5  -- Ti 32                  0.14        2.92788
             Ti 4  -- Ti 25                  0.14        2.92788
             Ti 8  -- Ti 38                  0.14        2.92788
             Ti 7  -- Ti 37                  0.14        2.92788
             Ti 6  -- Ti 40                  0.14        2.92788
             Ti 5  -- Ti 39                  0.14        2.92788
             Ti 4  -- Ti 34                  0.14        2.92788
             Ti 3  -- Ti 33                  0.14        2.92788
             Ti 2  -- Ti 36                  0.14        2.92788
             Ti 21 -- Ti 48                  0.14        2.92788
             Ti 17 -- Ti 44                  0.14        2.92788
             Ti 13 -- Ti 47                  0.14        2.92788
             Ti 9  -- Ti 43                  0.14        2.92788
             Ti 22 -- Ti 47                  0.14        2.92788
             Ti 18 -- Ti 43                  0.14        2.92788
             Ti 6  -- Ti 31                  0.14        2.92788
             Ti 2  -- Ti 27                  0.14        2.92788
             Ti 32 -- Ti 39                  0.14        2.92788
             Ti 28 -- Ti 35                  0.14        2.92788
             Ti 14 -- Ti 21                  0.14        2.92788
             Ti 10 -- Ti 17                  0.14        2.92788
             Ti 30 -- Ti 37                  0.14        2.92788
             Ti 26 -- Ti 33                  0.14        2.92788
             Ti 16 -- Ti 23                  0.14        2.92788
             Ti 12 -- Ti 19                  0.14        2.92788
             Ti 31 -- Ti 40                  0.14        2.92788
             Ti 29 -- Ti 38                  0.14        2.92788
             Ti 27 -- Ti 36                  0.14        2.92788
             Ti 25 -- Ti 34                  0.14        2.92788
             Ti 13 -- Ti 22                  0.14        2.92788
             Ti 9  -- Ti 18                  0.14        2.92788
             Ti 15 -- Ti 24                  0.14        2.92788
             Ti 11 -- Ti 20                  0.14        2.92788
             Ti 16 -- Ti 46                  0.14        2.92788
             Ti 12 -- Ti 42                  0.14        2.92788
             Ti 24 -- Ti 45                  0.14        2.92788
             Ti 23 -- Ti 46                  0.14        2.92788
             Ti 20 -- Ti 41                  0.14        2.92788
             Ti 19 -- Ti 42                  0.14        2.92788
             Ti 15 -- Ti 45                  0.14        2.92788
             Ti 11 -- Ti 41                  0.14        2.92788
======================================================================

 
 A BibTeX formatted list of references used in this run has been written to 
 castep.bib
 
Initialisation time =     17.18 s
Calculation time    =   3197.91 s
Finalisation time   =      0.16 s
Total time          =   3215.25 s
Peak Memory Use     = 2391976 kB
  
Overall parallel efficiency rating: Very good (82%)                             
  
Data was distributed by:-
G-vector (3-way); efficiency rating: Very good (83%)                            
k-point (14-way); efficiency rating: Excellent (98%)                            
