 +-------------------------------------------------+
 |                                                 |
 |      CCC   AA    SSS  TTTTT  EEEEE  PPPP        |
 |     C     A  A  S       T    E      P   P       |
 |     C     AAAA   SS     T    EEE    PPPP        |
 |     C     A  A     S    T    E      P           |
 |      CCC  A  A  SSS     T    EEEEE  P           |
 |                                                 |
 +-------------------------------------------------+
 |                                                 |
 | Welcome to Academic Release CASTEP version 17.21|          
 | Ab Initio Total Energy Program                  |
 |                                                 |
 | Authors:                                        |
 | M. Segall, M. Probert, C. Pickard, P. Hasnip,   |
 | S. Clark, K. Refson, J. R. Yates, M. Payne      |
 |                                                 |
 | Contributors:                                   |
 | P. Lindan, P. Haynes, J. White, V. Milman,      |
 | N. Govind, M. Gibson, P. Tulip, V. Cocula,      |
 | B. Montanari, D. Quigley, M. Glover,            |
 | L. Bernasconi, A. Perlov, M. Plummer,           |
 | E. McNellis, J. Meyer, J. Gale, D. Jochym       |
 | J. Aarons, B. Walker, R. Gillen, D. Jones       |
 | T. Green, I. J. Bush, C. J. Armstrong,          |
 | E. J. Higgins, E. L. Brown, M. S. McFly,        |
 | J. Wilkins, B-C. Shih, P. J. P. Byrne           |
 |                                                 |
 | Copyright (c) 2000 - 2017                       |
 |                                                 |
 |     Distributed under the terms of an           |
 |     Agreement between the United Kingdom        |
 |     Car-Parrinello (UKCP) Consortium,           |
 |     Daresbury Laboratory and Accelrys, Inc.     |
 |                                                 |
 | Please cite                                     |
 |                                                 |
 |     "First principles methods using CASTEP"     |
 |                                                 |
 |         Zeitschrift fuer Kristallographie       |
 |           220(5-6) pp. 567-570 (2005)           |
 |                                                 |
 | S. J. Clark, M. D. Segall, C. J. Pickard,       |
 | P. J. Hasnip, M. J. Probert, K. Refson,         |
 | M. C. Payne                                     |
 |                                                 |
 |       in all publications arising from          |
 |              your use of CASTEP                 |
 |                                                 |
 +-------------------------------------------------+
 
 
 Compiled for linux_x86_64_ifort17 on Fri, 08 Dec 2017 17:04:03 +0000
 from code version 
 056e886bd5a1+ Castep172_branch Mon, 15 May 2017 14:45:35 +0100
 Compiler: Intel Fortran 17.0.4.196; Optimisation: fast
 MATHLIBS: Intel MKL(2017.0.3) (LAPACK version 3.7.0)
 FFT Lib : mkl
 Fundamental constants values: CODATA 2010
 
 Run started: Tue, 30 Jun 2020 00:51:05 +0100
 
 Atomic calculation performed for Ti: 1s2 2s2 2p6 3s2 3p6 3d2 4s2
 
 Converged in 78 iterations to an ae energy of -23176.516 eV
 
   ============================================================                
   | Pseudopotential Report - Date of generation 30-06-2020   |                
   ------------------------------------------------------------                
   | Element: Ti Ionic charge: 12.00 Level of theory: LDA     |                
   | Atomic Solver: Koelling-Harmon                           |                
   |                                                          |                
   |               Reference Electronic Structure             |                
   |         Orbital         Occupation         Energy        |                
   |            3s              2.000           -2.288        |                
   |            3p              6.000           -1.425        |                
   |            4s              2.000           -0.169        |                
   |            3d              2.000           -0.164        |                
   |                                                          |                
   |                 Pseudopotential Definition               |                
   |        Beta     l      e      Rc     scheme   norm       |                
   |          1      0   -2.288   1.793     qc      0         |                
   |          2      0   -0.169   1.793     qc      0         |                
   |          3      0    0.250   1.793     qc      0         |                
   |          4      1   -1.425   1.793     qc      0         |                
   |          5      1    0.250   1.793     qc      0         |                
   |          6      2   -0.164   1.793     qc      0         |                
   |          7      2    0.250   1.793     qc      0         |                
   |         loc     3    0.000   1.793     pn      0         |                
   |                                                          |                
   | Augmentation charge Rinner = 1.263                       |                
   | Partial core correction Rc = 1.263                       |                
   ------------------------------------------------------------                
   | "3|1.8|9|10|11|30U:40:31:32(qc=5.5)"                     |                
   ------------------------------------------------------------                
   |      Author: Chris J. Pickard, Cambridge University      |                
   ============================================================                
 
 Pseudo atomic calculation performed for Ti 3s2 3p6 3d2 4s2
 
 Converged in 38 iterations to a total energy of -1586.0195 eV
 
 Calculation parallelised over 32 processes.
 Data is distributed by k-point(32-way)

 ************************************ Title ************************************
 

 ***************************** General Parameters ******************************
  
 output verbosity                               : normal  (1)
 write checkpoint data to                       : castep.check
 type of calculation                            : single point energy
 stress calculation                             : on
 density difference calculation                 : off
 electron localisation func (ELF) calculation   : off
 Hirshfeld analysis                             : off
 unlimited duration calculation
 timing information                             : on
 memory usage estimate                          : on
 write final potential to formatted file        : off
 write final density to formatted file          : off
 write BibTeX reference list                    : on
 write OTFG pseudopotential files               : on
 write electrostatic potential file             : on
 write bands file                               : on
 checkpoint writing                             : off
  
 output         length unit                     : A
 output           mass unit                     : amu
 output           time unit                     : ps
 output         charge unit                     : e
 output           spin unit                     : hbar/2
 output         energy unit                     : eV
 output          force unit                     : eV/A
 output       velocity unit                     : A/ps
 output       pressure unit                     : GPa
 output     inv_length unit                     : 1/A
 output      frequency unit                     : cm-1
 output force constant unit                     : eV/A**2
 output         volume unit                     : A**3
 output   IR intensity unit                     : (D/A)**2/amu
 output         dipole unit                     : D
 output         efield unit                     : eV/A/e
 output        entropy unit                     : J/mol/K
  
 wavefunctions paging                           : none
 random number generator seed                   : randomised (5106260)
 data distribution                              : optimal for this architecture
 optimization strategy                          : balance speed and memory

 *********************** Exchange-Correlation Parameters ***********************
  
 using functional                               : Local Density Approximation
 relativistic treatment                         : Koelling-Harmon
 DFT+D: Semi-empirical dispersion correction    : off

 ************************* Pseudopotential Parameters **************************
  
 pseudopotential representation                 : reciprocal space
 <beta|phi> representation                      : reciprocal space
 spin-orbit coupling                            : off

 **************************** Basis Set Parameters *****************************
  
 plane wave basis set cut-off                   :   700.0000   eV
 size of standard grid                          :     1.7500
 size of   fine   grid                          :     2.0000
 size of   fine   gmax                          :    27.1093   1/A
 finite basis set correction                    : automatic
 number of sample energies                      :          3
           sample  spacing                      :     5.0000   eV

 **************************** Electronic Parameters ****************************
  
 number of  electrons                           :  24.00    
 net charge of system                           :  0.000    
 treating system as non-spin-polarized
 number of bands                                :         16

 ********************* Electronic Minimization Parameters **********************
  
 Method: Treating system as metallic with density mixing treatment of electrons,
         and number of  SD  steps               :          1
         and number of  CG  steps               :          4
  
 total energy / atom convergence tol.           : 0.1000E-06   eV
 eigen-energy convergence tolerance             : 0.1667E-07   eV
 max force / atom convergence tol.              : 0.1000E-02   eV/A
 convergence tolerance window                   :          3   cycles
 max. number of SCF cycles                      :         30
 number of fixed-spin iterations                :         10
 smearing scheme                                : Gaussian
 smearing width                                 : 0.1000       eV
 Fermi energy convergence tolerance             : 0.2721E-13   eV
 periodic dipole correction                     : NONE

 ************************** Density Mixing Parameters **************************
  
 density-mixing scheme                          : Pulay
 max. length of mixing history                  :         20
 charge density mixing amplitude                : 0.8000    
 cut-off energy for mixing                      :  700.0       eV

 *********************** Population Analysis Parameters ************************
  
 Population analysis with cutoff                :  3.000       A

 *******************************************************************************
  
 
                           -------------------------------
                                      Unit Cell
                           -------------------------------
        Real Lattice(A)                      Reciprocal Lattice(1/A)
   2.8587860   0.0000000   0.0000000        2.1978509   1.2689299   0.0000000
  -1.4293930   2.4757810   0.0000000        0.0000000   2.5378599   0.0000000
   0.0000000   0.0000000   4.5281460        0.0000000   0.0000000   1.3875845
 
                       Lattice parameters(A)       Cell Angles
                    a =    2.858786          alpha =   90.000000
                    b =    2.858786          beta  =   90.000000
                    c =    4.528146          gamma =  120.000003
 
                       Current cell volume =   32.048986       A**3
                                   density =    2.987115   AMU/A**3
                                           =    4.960220     g/cm^3
 
                           -------------------------------
                                     Cell Contents
                           -------------------------------
                         Total number of ions in cell =    2
                      Total number of species in cell =    1
                        Max number of any one species =    2
 
            xxxxxxxxxxxxxxxxxxxxxxxxxxxxxxxxxxxxxxxxxxxxxxxxxxxxxxxxxxxx
            x  Element    Atom        Fractional coordinates of atoms  x
            x            Number           u          v          w      x
            x----------------------------------------------------------x
            x  Ti           1         0.000000   0.000000   0.000000   x 
            x  Ti           2         0.333333   0.666667   0.500000   x 
            xxxxxxxxxxxxxxxxxxxxxxxxxxxxxxxxxxxxxxxxxxxxxxxxxxxxxxxxxxxx
 
 
                         No user defined ionic velocities
 
                           -------------------------------
                                   Details of Species
                           -------------------------------
 
                               Mass of species in AMU
                                    Ti   47.8670000
 
                          Electric Quadrupole Moment (Barn)
                                    Ti    0.3020000 Isotope 47
 
                          Files used for pseudopotentials:
                                    Ti 3|1.8|9|10|11|30U:40:31:32(qc=5.5)
 
                           -------------------------------
                              k-Points For BZ Sampling
                           -------------------------------
                       MP grid size for SCF calculation is 21 21 12
                            with an offset of   0.000  0.000  0.000
                       Number of kpoints used =          2646
 
                           -------------------------------
                               Symmetry and Constraints
                           -------------------------------
 
                      Maximum deviation from symmetry =  0.00000         ANG
 
                      Number of symmetry operations   =           1
                      Number of ionic constraints     =           3
                      Point group of crystal =     1: C1, 1, 1
                      Space group of crystal =   194: P6_3/mmc, -P 6c 2c
 
             Set iprint > 1 for details on symmetry rotations/translations
 
                         Centre of mass is constrained
             Set iprint > 1 for details of linear ionic constraints
 
                         Number of cell constraints= 0
                         Cell constraints are:  1 2 3 4 5 6
 
                         External pressure/stress (GPa)
                          0.00000   0.00000   0.00000
                                    0.00000   0.00000
                                              0.00000
  
+---------------- MEMORY AND SCRATCH DISK ESTIMATES PER PROCESS --------------+
|                                                     Memory          Disk    |
| Baseline code, static data and system overhead      388.0 MB         0.0 MB |
| BLAS internal memory storage                          0.0 MB         0.0 MB |
| Model and support data                               69.9 MB        37.2 MB |
| Electronic energy minimisation requirements          64.8 MB         0.0 MB |
| Force calculation requirements                        4.6 MB         0.0 MB |
| Stress calculation requirements                       5.0 MB         0.0 MB |
|                                               ----------------------------- |
| Approx. total storage required per process          522.7 MB        37.2 MB |
|                                                                             |
| Requirements will fluctuate during execution and may exceed these estimates |
+-----------------------------------------------------------------------------+
Calculating finite basis set correction with  3 cut-off energies.
Calculating total energy with cut-off of  690.000 eV.
------------------------------------------------------------------------ <-- SCF
SCF loop      Energy           Fermi           Energy gain       Timer   <-- SCF
                               energy          per atom          (sec)   <-- SCF
------------------------------------------------------------------------ <-- SCF
Initial  -2.89619701E+003  0.00000000E+000                         9.01  <-- SCF
      1  -3.13423790E+003  1.13209705E+001   1.19020445E+002      14.77  <-- SCF
          Max force change        9.328E-002                             <-- SCF
      2  -3.18706213E+003  9.96680559E+000   2.64121158E+001      19.89  <-- SCF
          Max force change        1.062E-001                             <-- SCF
      3  -3.18763717E+003  9.91682346E+000   2.87517829E-001      25.18  <-- SCF
          Max force change        4.612E-003                             <-- SCF
      4  -3.18742184E+003  9.18122887E+000  -1.07663039E-001      30.70  <-- SCF
          Max force change        4.674E-003                             <-- SCF
      5  -3.18731432E+003  9.46943219E+000  -5.37633530E-002      36.38  <-- SCF
          Max force change        2.997E-003                             <-- SCF
      6  -3.18731415E+003  9.45129138E+000  -8.03136274E-005      42.75  <-- SCF
          Max force change        2.601E-003                             <-- SCF
      7  -3.18731415E+003  9.45064008E+000  -7.77332590E-007      49.02  <-- SCF
          Max force change        5.158E-004                             <-- SCF
      8  -3.18731412E+003  9.44883762E+000  -1.39929779E-005      55.35  <-- SCF
          Max force change        1.369E-003                             <-- SCF
      9  -3.18731412E+003  9.44918828E+000  -1.26695291E-007      59.40  <-- SCF
          Max force change        7.760E-004                             <-- SCF
     10  -3.18731412E+003  9.44922150E+000   7.06379483E-009      63.16  <-- SCF
          Max force change        1.323E-004                             <-- SCF
     11  -3.18731412E+003  9.44921905E+000   2.12083992E-009      66.84  <-- SCF
          Max force change        1.895E-005                             <-- SCF
------------------------------------------------------------------------ <-- SCF
 
Final energy, E             =  -3187.304485643     eV
Final free energy (E-TS)    =  -3187.314124684     eV
(energies not corrected for finite basis set)
 
NB est. 0K energy (E-0.5TS)      =  -3187.309305164     eV
 
Calculating total energy with cut-off of  695.000 eV.
------------------------------------------------------------------------ <-- SCF
SCF loop      Energy           Fermi           Energy gain       Timer   <-- SCF
                               energy          per atom          (sec)   <-- SCF
------------------------------------------------------------------------ <-- SCF
Initial  -3.18730449E+003  0.00000000E+000                        68.64  <-- SCF
      1  -3.18731417E+003  9.44918536E+000   4.84385983E-003      72.88  <-- SCF
          Max force change        8.808E-006                             <-- SCF
      2  -3.18731417E+003  9.44918536E+000   4.63031036E-009      76.46  <-- SCF
          Max force change        4.868E-007                             <-- SCF
      3  -3.18731417E+003  9.44919881E+000   5.78891270E-008      80.47  <-- SCF
          Max force change        4.301E-005                             <-- SCF
      4  -3.18731417E+003  9.44919804E+000  -6.18467778E-008      84.17  <-- SCF
          Max force change        1.513E-006                             <-- SCF
------------------------------------------------------------------------ <-- SCF
 
Final energy, E             =  -3187.304534306     eV
Final free energy (E-TS)    =  -3187.314173363     eV
(energies not corrected for finite basis set)
 
NB est. 0K energy (E-0.5TS)      =  -3187.309353834     eV
 
Calculating total energy with cut-off of  700.000 eV.
------------------------------------------------------------------------ <-- SCF
SCF loop      Energy           Fermi           Energy gain       Timer   <-- SCF
                               energy          per atom          (sec)   <-- SCF
------------------------------------------------------------------------ <-- SCF
Initial  -3.18730453E+003  0.00000000E+000                        85.99  <-- SCF
      1  -3.18731422E+003  9.44919084E+000   4.84477479E-003      90.28  <-- SCF
          Max force change        3.143E-006                             <-- SCF
      2  -3.18731422E+003  9.44919084E+000   1.24976616E-008      94.36  <-- SCF
          Max force change        2.923E-007                             <-- SCF
      3  -3.18731423E+003  9.44918897E+000   2.53036446E-006      99.90  <-- SCF
          Max force change        1.692E-005                             <-- SCF
      4  -3.18731422E+003  9.44919199E+000  -2.64491108E-006     105.47  <-- SCF
          Max force change        6.014E-007                             <-- SCF
      5  -3.18731422E+003  9.44919760E+000   2.50985714E-009     109.03  <-- SCF
          Max force change        3.597E-006                             <-- SCF
      6  -3.18731422E+003  9.44919488E+000   2.19063873E-010     112.61  <-- SCF
          Max force change        5.391E-007                             <-- SCF
------------------------------------------------------------------------ <-- SCF
 
Final energy, E             =  -3187.304584575     eV
Final free energy (E-TS)    =  -3187.314223640     eV
(energies not corrected for finite basis set)
 
NB est. 0K energy (E-0.5TS)      =  -3187.309404108     eV
 
 For future reference: finite basis dEtot/dlog(Ecut) =      -0.006829eV
 Total energy corrected for finite basis set =   -3187.314223 eV
 
 ******************* Unconstrained Forces *******************
 *                                                          *
 *               Cartesian components (eV/A)                *
 * -------------------------------------------------------- *
 *                         x            y            z      *
 *                                                          *
 * Ti              1     -0.00000      0.00000     -0.00000 *
 * Ti              2      0.00000     -0.00000      0.00000 *
 *                                                          *
 ************************************************************
 
 ******************** Constrained Forces ********************
 *                                                          *
 *               Cartesian components (eV/A)                *
 * -------------------------------------------------------- *
 *                         x            y            z      *
 *                                                          *
 * Ti              1     -0.00000      0.00000     -0.00000 *
 * Ti              2      0.00000     -0.00000      0.00000 *
 *                                                          *
 ************************************************************
 
 ***************** Stress Tensor *****************
 *                                               *
 *          Cartesian components (GPa)           *
 * --------------------------------------------- *
 *             x             y             z     *
 *                                               *
 *  x     -0.673709      0.000009      0.000000  *
 *  y      0.000009     -0.673697     -0.000000  *
 *  z      0.000000     -0.000000     -0.572073  *
 *                                               *
 *  Pressure:    0.6398                          *
 *                                               *
 *************************************************
 
 Pseudo atomic calculation performed for Ti 3s2 3p6 3d2 4s2
 
 Converged in 38 iterations to a total energy of -1586.0195 eV
 
Charge spilling parameter for spin component 1 = 0.07%
 
     Atomic Populations (Mulliken)
     -----------------------------
Species          Ion     s      p      d      f     Total  Charge (e)
=====================================================================
  Ti              1     2.31   6.92   2.77   0.00  12.00     0.00
  Ti              2     2.31   6.92   2.77   0.00  12.00    -0.00
=====================================================================
 
                 Bond                   Population      Length (A)
======================================================================
======================================================================
 
 
 A BibTeX formatted list of references used in this run has been written to 
 castep.bib
 
Initialisation time =      6.10 s
Calculation time    =    110.19 s
Finalisation time   =      0.22 s
Total time          =    116.51 s
Peak Memory Use     = 716376 kB
  
Overall parallel efficiency rating: Excellent (90%)                             
  
Data was distributed by:-
k-point (32-way); efficiency rating: Excellent (93%)                            
  
Parallel notes:
1) Calculation only took 116.3 s, so efficiency estimates may be inaccurate.    
 +-------------------------------------------------+
 |                                                 |
 |      CCC   AA    SSS  TTTTT  EEEEE  PPPP        |
 |     C     A  A  S       T    E      P   P       |
 |     C     AAAA   SS     T    EEE    PPPP        |
 |     C     A  A     S    T    E      P           |
 |      CCC  A  A  SSS     T    EEEEE  P           |
 |                                                 |
 +-------------------------------------------------+
 |                                                 |
 | Welcome to Academic Release CASTEP version 17.21|          
 | Ab Initio Total Energy Program                  |
 |                                                 |
 | Authors:                                        |
 | M. Segall, M. Probert, C. Pickard, P. Hasnip,   |
 | S. Clark, K. Refson, J. R. Yates, M. Payne      |
 |                                                 |
 | Contributors:                                   |
 | P. Lindan, P. Haynes, J. White, V. Milman,      |
 | N. Govind, M. Gibson, P. Tulip, V. Cocula,      |
 | B. Montanari, D. Quigley, M. Glover,            |
 | L. Bernasconi, A. Perlov, M. Plummer,           |
 | E. McNellis, J. Meyer, J. Gale, D. Jochym       |
 | J. Aarons, B. Walker, R. Gillen, D. Jones       |
 | T. Green, I. J. Bush, C. J. Armstrong,          |
 | E. J. Higgins, E. L. Brown, M. S. McFly,        |
 | J. Wilkins, B-C. Shih, P. J. P. Byrne           |
 |                                                 |
 | Copyright (c) 2000 - 2017                       |
 |                                                 |
 |     Distributed under the terms of an           |
 |     Agreement between the United Kingdom        |
 |     Car-Parrinello (UKCP) Consortium,           |
 |     Daresbury Laboratory and Accelrys, Inc.     |
 |                                                 |
 | Please cite                                     |
 |                                                 |
 |     "First principles methods using CASTEP"     |
 |                                                 |
 |         Zeitschrift fuer Kristallographie       |
 |           220(5-6) pp. 567-570 (2005)           |
 |                                                 |
 | S. J. Clark, M. D. Segall, C. J. Pickard,       |
 | P. J. Hasnip, M. J. Probert, K. Refson,         |
 | M. C. Payne                                     |
 |                                                 |
 |       in all publications arising from          |
 |              your use of CASTEP                 |
 |                                                 |
 +-------------------------------------------------+
 
 
 Compiled for linux_x86_64_ifort17 on Fri, 08 Dec 2017 17:04:03 +0000
 from code version 
 056e886bd5a1+ Castep172_branch Mon, 15 May 2017 14:45:35 +0100
 Compiler: Intel Fortran 17.0.4.196; Optimisation: fast
 MATHLIBS: Intel MKL(2017.0.3) (LAPACK version 3.7.0)
 FFT Lib : mkl
 Fundamental constants values: CODATA 2010
 
 Run started: Tue, 30 Jun 2020 00:53:02 +0100
 
 Atomic calculation performed for Ti: 1s2 2s2 2p6 3s2 3p6 3d2 4s2
 
 Converged in 78 iterations to an ae energy of -23176.516 eV
 
   ============================================================                
   | Pseudopotential Report - Date of generation 30-06-2020   |                
   ------------------------------------------------------------                
   | Element: Ti Ionic charge: 12.00 Level of theory: LDA     |                
   | Atomic Solver: Koelling-Harmon                           |                
   |                                                          |                
   |               Reference Electronic Structure             |                
   |         Orbital         Occupation         Energy        |                
   |            3s              2.000           -2.288        |                
   |            3p              6.000           -1.425        |                
   |            4s              2.000           -0.169        |                
   |            3d              2.000           -0.164        |                
   |                                                          |                
   |                 Pseudopotential Definition               |                
   |        Beta     l      e      Rc     scheme   norm       |                
   |          1      0   -2.288   1.793     qc      0         |                
   |          2      0   -0.169   1.793     qc      0         |                
   |          3      0    0.250   1.793     qc      0         |                
   |          4      1   -1.425   1.793     qc      0         |                
   |          5      1    0.250   1.793     qc      0         |                
   |          6      2   -0.164   1.793     qc      0         |                
   |          7      2    0.250   1.793     qc      0         |                
   |         loc     3    0.000   1.793     pn      0         |                
   |                                                          |                
   | Augmentation charge Rinner = 1.263                       |                
   | Partial core correction Rc = 1.263                       |                
   ------------------------------------------------------------                
   | "3|1.8|9|10|11|30U:40:31:32(qc=5.5)"                     |                
   ------------------------------------------------------------                
   |      Author: Chris J. Pickard, Cambridge University      |                
   ============================================================                
 
 Pseudo atomic calculation performed for Ti 3s2 3p6 3d2 4s2
 
 Converged in 38 iterations to a total energy of -1586.0195 eV
 
 Calculation parallelised over 32 processes.
 Data is distributed by k-point(32-way)

 ************************************ Title ************************************
 

 ***************************** General Parameters ******************************
  
 output verbosity                               : normal  (1)
 write checkpoint data to                       : castep.check
 type of calculation                            : single point energy
 stress calculation                             : on
 density difference calculation                 : off
 electron localisation func (ELF) calculation   : off
 Hirshfeld analysis                             : off
 unlimited duration calculation
 timing information                             : on
 memory usage estimate                          : on
 write final potential to formatted file        : off
 write final density to formatted file          : off
 write BibTeX reference list                    : on
 write OTFG pseudopotential files               : on
 write electrostatic potential file             : on
 write bands file                               : on
 checkpoint writing                             : off
  
 output         length unit                     : A
 output           mass unit                     : amu
 output           time unit                     : ps
 output         charge unit                     : e
 output           spin unit                     : hbar/2
 output         energy unit                     : eV
 output          force unit                     : eV/A
 output       velocity unit                     : A/ps
 output       pressure unit                     : GPa
 output     inv_length unit                     : 1/A
 output      frequency unit                     : cm-1
 output force constant unit                     : eV/A**2
 output         volume unit                     : A**3
 output   IR intensity unit                     : (D/A)**2/amu
 output         dipole unit                     : D
 output         efield unit                     : eV/A/e
 output        entropy unit                     : J/mol/K
  
 wavefunctions paging                           : none
 random number generator seed                   : randomised (5303139)
 data distribution                              : optimal for this architecture
 optimization strategy                          : maximize speed(+++)

 *********************** Exchange-Correlation Parameters ***********************
  
 using functional                               : Local Density Approximation
 relativistic treatment                         : Koelling-Harmon
 DFT+D: Semi-empirical dispersion correction    : off

 ************************* Pseudopotential Parameters **************************
  
 pseudopotential representation                 : reciprocal space
 <beta|phi> representation                      : reciprocal space
 spin-orbit coupling                            : off

 **************************** Basis Set Parameters *****************************
  
 plane wave basis set cut-off                   :   700.0000   eV
 size of standard grid                          :     1.7500
 size of   fine   grid                          :     2.0000
 size of   fine   gmax                          :    27.1093   1/A
 finite basis set correction                    : automatic
 number of sample energies                      :          3
           sample  spacing                      :     5.0000   eV

 **************************** Electronic Parameters ****************************
  
 number of  electrons                           :  24.00    
 net charge of system                           :  0.000    
 treating system as non-spin-polarized
 number of bands                                :         16

 ********************* Electronic Minimization Parameters **********************
  
 Method: Treating system as metallic with density mixing treatment of electrons,
         and number of  SD  steps               :          1
         and number of  CG  steps               :          4
  
 total energy / atom convergence tol.           : 0.1000E-06   eV
 eigen-energy convergence tolerance             : 0.1667E-07   eV
 max force / atom convergence tol.              : 0.1000E-02   eV/A
 convergence tolerance window                   :          3   cycles
 max. number of SCF cycles                      :         30
 number of fixed-spin iterations                :         10
 smearing scheme                                : Gaussian
 smearing width                                 : 0.1000       eV
 Fermi energy convergence tolerance             : 0.2721E-13   eV
 periodic dipole correction                     : NONE

 ************************** Density Mixing Parameters **************************
  
 density-mixing scheme                          : Pulay
 max. length of mixing history                  :         20
 charge density mixing amplitude                : 0.8000    
 cut-off energy for mixing                      :  700.0       eV

 *********************** Population Analysis Parameters ************************
  
 Population analysis with cutoff                :  3.000       A

 *******************************************************************************
  
 
                           -------------------------------
                                      Unit Cell
                           -------------------------------
        Real Lattice(A)                      Reciprocal Lattice(1/A)
   2.8587860   0.0000000   0.0000000        2.1978509   1.2689299   0.0000000
  -1.4293930   2.4757810   0.0000000        0.0000000   2.5378599   0.0000000
   0.0000000   0.0000000   4.5281460        0.0000000   0.0000000   1.3875845
 
                       Lattice parameters(A)       Cell Angles
                    a =    2.858786          alpha =   90.000000
                    b =    2.858786          beta  =   90.000000
                    c =    4.528146          gamma =  120.000003
 
                       Current cell volume =   32.048986       A**3
                                   density =    2.987115   AMU/A**3
                                           =    4.960220     g/cm^3
 
                           -------------------------------
                                     Cell Contents
                           -------------------------------
                         Total number of ions in cell =    2
                      Total number of species in cell =    1
                        Max number of any one species =    2
 
            xxxxxxxxxxxxxxxxxxxxxxxxxxxxxxxxxxxxxxxxxxxxxxxxxxxxxxxxxxxx
            x  Element    Atom        Fractional coordinates of atoms  x
            x            Number           u          v          w      x
            x----------------------------------------------------------x
            x  Ti           1         0.000000   0.000000   0.000000   x 
            x  Ti           2         0.333333   0.666667   0.500000   x 
            xxxxxxxxxxxxxxxxxxxxxxxxxxxxxxxxxxxxxxxxxxxxxxxxxxxxxxxxxxxx
 
 
                         No user defined ionic velocities
 
                           -------------------------------
                                   Details of Species
                           -------------------------------
 
                               Mass of species in AMU
                                    Ti   47.8670000
 
                          Electric Quadrupole Moment (Barn)
                                    Ti    0.3020000 Isotope 47
 
                          Files used for pseudopotentials:
                                    Ti 3|1.8|9|10|11|30U:40:31:32(qc=5.5)
 
                           -------------------------------
                              k-Points For BZ Sampling
                           -------------------------------
                       MP grid size for SCF calculation is 21 21 12
                            with an offset of   0.000  0.000  0.000
                       Number of kpoints used =          2646
 
                           -------------------------------
                               Symmetry and Constraints
                           -------------------------------
 
                      Maximum deviation from symmetry =  0.00000         ANG
 
                      Number of symmetry operations   =           1
                      Number of ionic constraints     =           3
                      Point group of crystal =     1: C1, 1, 1
                      Space group of crystal =   194: P6_3/mmc, -P 6c 2c
 
             Set iprint > 1 for details on symmetry rotations/translations
 
                         Centre of mass is constrained
             Set iprint > 1 for details of linear ionic constraints
 
                         Number of cell constraints= 0
                         Cell constraints are:  1 2 3 4 5 6
 
                         External pressure/stress (GPa)
                          0.00000   0.00000   0.00000
                                    0.00000   0.00000
                                              0.00000
  
+---------------- MEMORY AND SCRATCH DISK ESTIMATES PER PROCESS --------------+
|                                                     Memory          Disk    |
| Baseline code, static data and system overhead      388.0 MB         0.0 MB |
| BLAS internal memory storage                          0.0 MB         0.0 MB |
| Model and support data                              106.9 MB         0.0 MB |
| Electronic energy minimisation requirements          64.8 MB         0.0 MB |
| Force calculation requirements                        4.6 MB         0.0 MB |
| Stress calculation requirements                       5.0 MB         0.0 MB |
|                                               ----------------------------- |
| Approx. total storage required per process          559.7 MB         0.0 MB |
|                                                                             |
| Requirements will fluctuate during execution and may exceed these estimates |
+-----------------------------------------------------------------------------+
Calculating finite basis set correction with  3 cut-off energies.
Calculating total energy with cut-off of  690.000 eV.
------------------------------------------------------------------------ <-- SCF
SCF loop      Energy           Fermi           Energy gain       Timer   <-- SCF
                               energy          per atom          (sec)   <-- SCF
------------------------------------------------------------------------ <-- SCF
Initial  -2.89613749E+003  0.00000000E+000                         9.08  <-- SCF
      1  -3.13445475E+003  1.13435525E+001   1.19158627E+002      14.83  <-- SCF
          Max force change        1.811E-001                             <-- SCF
      2  -3.18706773E+003  9.96677272E+000   2.63064908E+001      19.93  <-- SCF
          Max force change        1.463E-001                             <-- SCF
      3  -3.18763712E+003  9.91693898E+000   2.84696194E-001      25.16  <-- SCF
          Max force change        8.907E-003                             <-- SCF
      4  -3.18742176E+003  9.18131076E+000  -1.07679134E-001      30.63  <-- SCF
          Max force change        1.509E-003                             <-- SCF
      5  -3.18731432E+003  9.46944240E+000  -5.37201983E-002      36.39  <-- SCF
          Max force change        7.152E-004                             <-- SCF
      6  -3.18731414E+003  9.45127374E+000  -8.97125157E-005      42.72  <-- SCF
          Max force change        7.572E-004                             <-- SCF
      7  -3.18731416E+003  9.45043359E+000   1.00538005E-005      49.02  <-- SCF
          Max force change        4.304E-004                             <-- SCF
      8  -3.18731412E+003  9.44882784E+000  -1.86007883E-005      55.28  <-- SCF
          Max force change        7.618E-004                             <-- SCF
      9  -3.18731412E+003  9.44918360E+000  -1.20237451E-007      59.31  <-- SCF
          Max force change        4.299E-004                             <-- SCF
     10  -3.18731412E+003  9.44922073E+000   6.62566709E-009      63.06  <-- SCF
          Max force change        4.466E-005                             <-- SCF
     11  -3.18731412E+003  9.44921792E+000   2.02049204E-009      66.72  <-- SCF
          Max force change        3.324E-006                             <-- SCF
------------------------------------------------------------------------ <-- SCF
 
Final energy, E             =  -3187.304485638     eV
Final free energy (E-TS)    =  -3187.314124684     eV
(energies not corrected for finite basis set)
 
NB est. 0K energy (E-0.5TS)      =  -3187.309305161     eV
 
Calculating total energy with cut-off of  695.000 eV.
------------------------------------------------------------------------ <-- SCF
SCF loop      Energy           Fermi           Energy gain       Timer   <-- SCF
                               energy          per atom          (sec)   <-- SCF
------------------------------------------------------------------------ <-- SCF
Initial  -3.18730449E+003  0.00000000E+000                        68.53  <-- SCF
      1  -3.18731417E+003  9.44918759E+000   4.84386078E-003      72.74  <-- SCF
          Max force change        1.936E-006                             <-- SCF
      2  -3.18731417E+003  9.44918759E+000   4.64829177E-009      76.32  <-- SCF
          Max force change        2.860E-007                             <-- SCF
      3  -3.18731417E+003  9.44919756E+000   3.26610121E-008      80.06  <-- SCF
          Max force change        7.499E-006                             <-- SCF
      4  -3.18731417E+003  9.44919724E+000  -3.37250090E-008      83.59  <-- SCF
          Max force change        2.837E-007                             <-- SCF
------------------------------------------------------------------------ <-- SCF
 
Final energy, E             =  -3187.304534305     eV
Final free energy (E-TS)    =  -3187.314173366     eV
(energies not corrected for finite basis set)
 
NB est. 0K energy (E-0.5TS)      =  -3187.309353836     eV
 
Calculating total energy with cut-off of  700.000 eV.
------------------------------------------------------------------------ <-- SCF
SCF loop      Energy           Fermi           Energy gain       Timer   <-- SCF
                               energy          per atom          (sec)   <-- SCF
------------------------------------------------------------------------ <-- SCF
Initial  -3.18730453E+003  0.00000000E+000                        85.40  <-- SCF
      1  -3.18731422E+003  9.44919238E+000   4.84471562E-003      89.68  <-- SCF
          Max force change        9.056E-007                             <-- SCF
      2  -3.18731422E+003  9.44919238E+000   8.50714154E-009      93.51  <-- SCF
          Max force change        1.279E-007                             <-- SCF
      3  -3.18731423E+003  9.44918853E+000   1.18525640E-006      99.01  <-- SCF
          Max force change        4.581E-006                             <-- SCF
      4  -3.18731422E+003  9.44919108E+000  -1.23921939E-006     104.50  <-- SCF
          Max force change        1.540E-007                             <-- SCF
      5  -3.18731422E+003  9.44919844E+000   1.21248857E-009     108.07  <-- SCF
          Max force change        9.647E-007                             <-- SCF
      6  -3.18731422E+003  9.44919503E+000   1.89288201E-010     111.66  <-- SCF
          Max force change        2.394E-007                             <-- SCF
------------------------------------------------------------------------ <-- SCF
 
Final energy, E             =  -3187.304584576     eV
Final free energy (E-TS)    =  -3187.314223640     eV
(energies not corrected for finite basis set)
 
NB est. 0K energy (E-0.5TS)      =  -3187.309404108     eV
 
 For future reference: finite basis dEtot/dlog(Ecut) =      -0.006829eV
 Total energy corrected for finite basis set =   -3187.314223 eV
 
 ******************* Unconstrained Forces *******************
 *                                                          *
 *               Cartesian components (eV/A)                *
 * -------------------------------------------------------- *
 *                         x            y            z      *
 *                                                          *
 * Ti              1     -0.00000      0.00000     -0.00000 *
 * Ti              2      0.00000     -0.00000      0.00000 *
 *                                                          *
 ************************************************************
 
 ******************** Constrained Forces ********************
 *                                                          *
 *               Cartesian components (eV/A)                *
 * -------------------------------------------------------- *
 *                         x            y            z      *
 *                                                          *
 * Ti              1     -0.00000      0.00000     -0.00000 *
 * Ti              2      0.00000     -0.00000      0.00000 *
 *                                                          *
 ************************************************************
 
 ***************** Stress Tensor *****************
 *                                               *
 *          Cartesian components (GPa)           *
 * --------------------------------------------- *
 *             x             y             z     *
 *                                               *
 *  x     -0.673727      0.000009     -0.000000  *
 *  y      0.000009     -0.673715      0.000000  *
 *  z     -0.000000      0.000000     -0.572092  *
 *                                               *
 *  Pressure:    0.6398                          *
 *                                               *
 *************************************************
 
 Pseudo atomic calculation performed for Ti 3s2 3p6 3d2 4s2
 
 Converged in 38 iterations to a total energy of -1586.0195 eV
 
Charge spilling parameter for spin component 1 = 0.07%
 
     Atomic Populations (Mulliken)
     -----------------------------
Species          Ion     s      p      d      f     Total  Charge (e)
=====================================================================
  Ti              1     2.31   6.92   2.77   0.00  12.00    -0.00
  Ti              2     2.31   6.92   2.77   0.00  12.00     0.00
=====================================================================
 
                 Bond                   Population      Length (A)
======================================================================
======================================================================
 
 
 A BibTeX formatted list of references used in this run has been written to 
 castep.bib
 
Initialisation time =      6.18 s
Calculation time    =    109.17 s
Finalisation time   =      0.26 s
Total time          =    115.61 s
Peak Memory Use     = 720324 kB
  
Overall parallel efficiency rating: Excellent (90%)                             
  
Data was distributed by:-
k-point (32-way); efficiency rating: Excellent (93%)                            
  
Parallel notes:
1) Calculation only took 115.4 s, so efficiency estimates may be inaccurate.    
 +-------------------------------------------------+
 |                                                 |
 |      CCC   AA    SSS  TTTTT  EEEEE  PPPP        |
 |     C     A  A  S       T    E      P   P       |
 |     C     AAAA   SS     T    EEE    PPPP        |
 |     C     A  A     S    T    E      P           |
 |      CCC  A  A  SSS     T    EEEEE  P           |
 |                                                 |
 +-------------------------------------------------+
 |                                                 |
 | Welcome to Academic Release CASTEP version 17.21|          
 | Ab Initio Total Energy Program                  |
 |                                                 |
 | Authors:                                        |
 | M. Segall, M. Probert, C. Pickard, P. Hasnip,   |
 | S. Clark, K. Refson, J. R. Yates, M. Payne      |
 |                                                 |
 | Contributors:                                   |
 | P. Lindan, P. Haynes, J. White, V. Milman,      |
 | N. Govind, M. Gibson, P. Tulip, V. Cocula,      |
 | B. Montanari, D. Quigley, M. Glover,            |
 | L. Bernasconi, A. Perlov, M. Plummer,           |
 | E. McNellis, J. Meyer, J. Gale, D. Jochym       |
 | J. Aarons, B. Walker, R. Gillen, D. Jones       |
 | T. Green, I. J. Bush, C. J. Armstrong,          |
 | E. J. Higgins, E. L. Brown, M. S. McFly,        |
 | J. Wilkins, B-C. Shih, P. J. P. Byrne           |
 |                                                 |
 | Copyright (c) 2000 - 2017                       |
 |                                                 |
 |     Distributed under the terms of an           |
 |     Agreement between the United Kingdom        |
 |     Car-Parrinello (UKCP) Consortium,           |
 |     Daresbury Laboratory and Accelrys, Inc.     |
 |                                                 |
 | Please cite                                     |
 |                                                 |
 |     "First principles methods using CASTEP"     |
 |                                                 |
 |         Zeitschrift fuer Kristallographie       |
 |           220(5-6) pp. 567-570 (2005)           |
 |                                                 |
 | S. J. Clark, M. D. Segall, C. J. Pickard,       |
 | P. J. Hasnip, M. J. Probert, K. Refson,         |
 | M. C. Payne                                     |
 |                                                 |
 |       in all publications arising from          |
 |              your use of CASTEP                 |
 |                                                 |
 +-------------------------------------------------+
 
 
 Compiled for linux_x86_64_ifort17 on Fri, 08 Dec 2017 17:04:03 +0000
 from code version 
 056e886bd5a1+ Castep172_branch Mon, 15 May 2017 14:45:35 +0100
 Compiler: Intel Fortran 17.0.4.196; Optimisation: fast
 MATHLIBS: Intel MKL(2017.0.3) (LAPACK version 3.7.0)
 FFT Lib : mkl
 Fundamental constants values: CODATA 2010
 
 Run started: Tue, 30 Jun 2020 00:54:58 +0100
 
 Atomic calculation performed for Ti: 1s2 2s2 2p6 3s2 3p6 3d2 4s2
 
 Converged in 78 iterations to an ae energy of -23176.516 eV
 
   ============================================================                
   | Pseudopotential Report - Date of generation 30-06-2020   |                
   ------------------------------------------------------------                
   | Element: Ti Ionic charge: 12.00 Level of theory: LDA     |                
   | Atomic Solver: Koelling-Harmon                           |                
   |                                                          |                
   |               Reference Electronic Structure             |                
   |         Orbital         Occupation         Energy        |                
   |            3s              2.000           -2.288        |                
   |            3p              6.000           -1.425        |                
   |            4s              2.000           -0.169        |                
   |            3d              2.000           -0.164        |                
   |                                                          |                
   |                 Pseudopotential Definition               |                
   |        Beta     l      e      Rc     scheme   norm       |                
   |          1      0   -2.288   1.793     qc      0         |                
   |          2      0   -0.169   1.793     qc      0         |                
   |          3      0    0.250   1.793     qc      0         |                
   |          4      1   -1.425   1.793     qc      0         |                
   |          5      1    0.250   1.793     qc      0         |                
   |          6      2   -0.164   1.793     qc      0         |                
   |          7      2    0.250   1.793     qc      0         |                
   |         loc     3    0.000   1.793     pn      0         |                
   |                                                          |                
   | Augmentation charge Rinner = 1.263                       |                
   | Partial core correction Rc = 1.263                       |                
   ------------------------------------------------------------                
   | "3|1.8|9|10|11|30U:40:31:32(qc=5.5)"                     |                
   ------------------------------------------------------------                
   |      Author: Chris J. Pickard, Cambridge University      |                
   ============================================================                
 
 Pseudo atomic calculation performed for Ti 3s2 3p6 3d2 4s2
 
 Converged in 38 iterations to a total energy of -1586.0195 eV
 
 Calculation parallelised over 32 processes.
 Data is distributed by k-point(32-way)

 ************************************ Title ************************************
 

 ***************************** General Parameters ******************************
  
 output verbosity                               : normal  (1)
 write checkpoint data to                       : castep.check
 type of calculation                            : single point energy
 stress calculation                             : on
 density difference calculation                 : off
 electron localisation func (ELF) calculation   : off
 Hirshfeld analysis                             : off
 unlimited duration calculation
 timing information                             : on
 memory usage estimate                          : on
 write final potential to formatted file        : off
 write final density to formatted file          : off
 write BibTeX reference list                    : on
 write OTFG pseudopotential files               : on
 write electrostatic potential file             : on
 write bands file                               : on
 checkpoint writing                             : off
  
 output         length unit                     : A
 output           mass unit                     : amu
 output           time unit                     : ps
 output         charge unit                     : e
 output           spin unit                     : hbar/2
 output         energy unit                     : eV
 output          force unit                     : eV/A
 output       velocity unit                     : A/ps
 output       pressure unit                     : GPa
 output     inv_length unit                     : 1/A
 output      frequency unit                     : cm-1
 output force constant unit                     : eV/A**2
 output         volume unit                     : A**3
 output   IR intensity unit                     : (D/A)**2/amu
 output         dipole unit                     : D
 output         efield unit                     : eV/A/e
 output        entropy unit                     : J/mol/K
  
 wavefunctions paging                           : none
 random number generator seed                   : randomised (5459325)
 data distribution                              : optimal for this architecture
 optimization strategy                          : maximize speed(+++)

 *********************** Exchange-Correlation Parameters ***********************
  
 using functional                               : Local Density Approximation
 relativistic treatment                         : Koelling-Harmon
 DFT+D: Semi-empirical dispersion correction    : off

 ************************* Pseudopotential Parameters **************************
  
 pseudopotential representation                 : reciprocal space
 <beta|phi> representation                      : reciprocal space
 spin-orbit coupling                            : off

 **************************** Basis Set Parameters *****************************
  
 plane wave basis set cut-off                   :   700.0000   eV
 size of standard grid                          :     1.7500
 size of   fine   grid                          :     2.0000
 size of   fine   gmax                          :    27.1093   1/A
 finite basis set correction                    : automatic
 number of sample energies                      :          3
           sample  spacing                      :     5.0000   eV

 **************************** Electronic Parameters ****************************
  
 number of  electrons                           :  24.00    
 net charge of system                           :  0.000    
 treating system as non-spin-polarized
 number of bands                                :         16

 ********************* Electronic Minimization Parameters **********************
  
 Method: Treating system as metallic with density mixing treatment of electrons,
         and number of  SD  steps               :          1
         and number of  CG  steps               :          4
  
 total energy / atom convergence tol.           : 0.1000E-06   eV
 eigen-energy convergence tolerance             : 0.1667E-07   eV
 max force / atom convergence tol.              : 0.1000E-02   eV/A
 convergence tolerance window                   :          3   cycles
 max. number of SCF cycles                      :         30
 number of fixed-spin iterations                :         10
 smearing scheme                                : Gaussian
 smearing width                                 : 0.1000       eV
 Fermi energy convergence tolerance             : 0.2721E-13   eV
 periodic dipole correction                     : NONE

 ************************** Density Mixing Parameters **************************
  
 density-mixing scheme                          : Pulay
 max. length of mixing history                  :         20
 charge density mixing amplitude                : 0.8000    
 cut-off energy for mixing                      :  700.0       eV

 *********************** Population Analysis Parameters ************************
  
 Population analysis with cutoff                :  3.000       A

 *******************************************************************************
  
 
                           -------------------------------
                                      Unit Cell
                           -------------------------------
        Real Lattice(A)                      Reciprocal Lattice(1/A)
   2.8347620   0.0000000   0.0000000        2.2164772   1.2796837   0.0000000
  -1.4173810   2.4549760   0.0000000        0.0000000   2.5593673   0.0000000
   0.0000000   0.0000000   4.4900930        0.0000000   0.0000000   1.3993441
 
                       Lattice parameters(A)       Cell Angles
                    a =    2.834762          alpha =   90.000000
                    b =    2.834762          beta  =   90.000000
                    c =    4.490093          gamma =  119.999999
 
                       Current cell volume =   31.247782       A**3
                                   density =    3.063705   AMU/A**3
                                           =    5.087402     g/cm^3
 
                           -------------------------------
                                     Cell Contents
                           -------------------------------
                         Total number of ions in cell =    2
                      Total number of species in cell =    1
                        Max number of any one species =    2
 
            xxxxxxxxxxxxxxxxxxxxxxxxxxxxxxxxxxxxxxxxxxxxxxxxxxxxxxxxxxxx
            x  Element    Atom        Fractional coordinates of atoms  x
            x            Number           u          v          w      x
            x----------------------------------------------------------x
            x  Ti           1         0.000000   0.000000   0.000000   x 
            x  Ti           2         0.333333   0.666667   0.500000   x 
            xxxxxxxxxxxxxxxxxxxxxxxxxxxxxxxxxxxxxxxxxxxxxxxxxxxxxxxxxxxx
 
 
                         No user defined ionic velocities
 
                           -------------------------------
                                   Details of Species
                           -------------------------------
 
                               Mass of species in AMU
                                    Ti   47.8670000
 
                          Electric Quadrupole Moment (Barn)
                                    Ti    0.3020000 Isotope 47
 
                          Files used for pseudopotentials:
                                    Ti 3|1.8|9|10|11|30U:40:31:32(qc=5.5)
 
                           -------------------------------
                              k-Points For BZ Sampling
                           -------------------------------
                       MP grid size for SCF calculation is 21 21 12
                            with an offset of   0.000  0.000  0.000
                       Number of kpoints used =          2646
 
                           -------------------------------
                               Symmetry and Constraints
                           -------------------------------
 
                      Maximum deviation from symmetry =  0.00000         ANG
 
                      Number of symmetry operations   =           1
                      Number of ionic constraints     =           3
                      Point group of crystal =     1: C1, 1, 1
                      Space group of crystal =   194: P6_3/mmc, -P 6c 2c
 
             Set iprint > 1 for details on symmetry rotations/translations
 
                         Centre of mass is constrained
             Set iprint > 1 for details of linear ionic constraints
 
                         Number of cell constraints= 0
                         Cell constraints are:  1 2 3 4 5 6
 
                         External pressure/stress (GPa)
                          0.00000   0.00000   0.00000
                                    0.00000   0.00000
                                              0.00000
  
+---------------- MEMORY AND SCRATCH DISK ESTIMATES PER PROCESS --------------+
|                                                     Memory          Disk    |
| Baseline code, static data and system overhead      388.0 MB         0.0 MB |
| BLAS internal memory storage                          0.0 MB         0.0 MB |
| Model and support data                              105.6 MB         0.0 MB |
| Electronic energy minimisation requirements          62.9 MB         0.0 MB |
| Force calculation requirements                        4.6 MB         0.0 MB |
| Stress calculation requirements                       5.0 MB         0.0 MB |
|                                               ----------------------------- |
| Approx. total storage required per process          556.5 MB         0.0 MB |
|                                                                             |
| Requirements will fluctuate during execution and may exceed these estimates |
+-----------------------------------------------------------------------------+
Calculating finite basis set correction with  3 cut-off energies.
Calculating total energy with cut-off of  690.000 eV.
------------------------------------------------------------------------ <-- SCF
SCF loop      Energy           Fermi           Energy gain       Timer   <-- SCF
                               energy          per atom          (sec)   <-- SCF
------------------------------------------------------------------------ <-- SCF
Initial  -2.89793677E+003  0.00000000E+000                         8.96  <-- SCF
      1  -3.13426527E+003  1.16288418E+001   1.18164250E+002      14.62  <-- SCF
          Max force change        1.402E-001                             <-- SCF
      2  -3.18707729E+003  1.02580664E+001   2.64060126E+001      19.61  <-- SCF
          Max force change        9.739E-002                             <-- SCF
      3  -3.18761672E+003  1.02153110E+001   2.69712921E-001      24.57  <-- SCF
          Max force change        7.776E-003                             <-- SCF
      4  -3.18740233E+003  9.49793963E+000  -1.07195135E-001      29.94  <-- SCF
          Max force change        5.381E-003                             <-- SCF
      5  -3.18730257E+003  9.77469114E+000  -4.98781488E-002      35.47  <-- SCF
          Max force change        2.274E-003                             <-- SCF
      6  -3.18730243E+003  9.75757699E+000  -7.24159200E-005      41.68  <-- SCF
          Max force change        2.367E-003                             <-- SCF
      7  -3.18730243E+003  9.75687171E+000   7.83989193E-007      47.82  <-- SCF
          Max force change        3.914E-004                             <-- SCF
      8  -3.18730240E+003  9.75504262E+000  -1.35998072E-005      53.99  <-- SCF
          Max force change        8.436E-004                             <-- SCF
      9  -3.18730240E+003  9.75537790E+000  -1.15219477E-007      57.88  <-- SCF
          Max force change        4.387E-004                             <-- SCF
     10  -3.18730240E+003  9.75541439E+000   6.40486308E-009      61.58  <-- SCF
          Max force change        9.779E-005                             <-- SCF
     11  -3.18730240E+003  9.75541213E+000   1.95456019E-009      65.20  <-- SCF
          Max force change        2.336E-005                             <-- SCF
------------------------------------------------------------------------ <-- SCF
 
Final energy, E             =  -3187.292871027     eV
Final free energy (E-TS)    =  -3187.302402408     eV
(energies not corrected for finite basis set)
 
NB est. 0K energy (E-0.5TS)      =  -3187.297636717     eV
 
Calculating total energy with cut-off of  695.000 eV.
------------------------------------------------------------------------ <-- SCF
SCF loop      Energy           Fermi           Energy gain       Timer   <-- SCF
                               energy          per atom          (sec)   <-- SCF
------------------------------------------------------------------------ <-- SCF
Initial  -3.18729287E+003  0.00000000E+000                        67.00  <-- SCF
      1  -3.18730245E+003  9.75537925E+000   4.78980980E-003      71.21  <-- SCF
          Max force change        1.329E-005                             <-- SCF
      2  -3.18730245E+003  9.75537925E+000   4.57539938E-009      74.84  <-- SCF
          Max force change        1.160E-006                             <-- SCF
      3  -3.18730245E+003  9.75539154E+000   5.14448208E-008      78.77  <-- SCF
          Max force change        5.673E-005                             <-- SCF
      4  -3.18730245E+003  9.75539094E+000  -5.48821708E-008      82.44  <-- SCF
          Max force change        1.413E-006                             <-- SCF
------------------------------------------------------------------------ <-- SCF
 
Final energy, E             =  -3187.292919257     eV
Final free energy (E-TS)    =  -3187.302450648     eV
(energies not corrected for finite basis set)
 
NB est. 0K energy (E-0.5TS)      =  -3187.297684952     eV
 
Calculating total energy with cut-off of  700.000 eV.
------------------------------------------------------------------------ <-- SCF
SCF loop      Energy           Fermi           Energy gain       Timer   <-- SCF
                               energy          per atom          (sec)   <-- SCF
------------------------------------------------------------------------ <-- SCF
Initial  -3.18729292E+003  0.00000000E+000                        84.28  <-- SCF
      1  -3.18730250E+003  9.75538491E+000   4.79021481E-003      88.46  <-- SCF
          Max force change        4.994E-006                             <-- SCF
      2  -3.18730250E+003  9.75538490E+000   1.08924822E-008      92.39  <-- SCF
          Max force change        4.412E-007                             <-- SCF
      3  -3.18730250E+003  9.75538246E+000   1.95790357E-006      97.83  <-- SCF
          Max force change        2.760E-005                             <-- SCF
      4  -3.18730250E+003  9.75538513E+000  -2.05027409E-006     103.22  <-- SCF
          Max force change        9.806E-007                             <-- SCF
      5  -3.18730250E+003  9.75539104E+000   2.04485395E-009     106.75  <-- SCF
          Max force change        5.712E-006                             <-- SCF
      6  -3.18730250E+003  9.75538829E+000   1.95282005E-010     110.26  <-- SCF
          Max force change        1.015E-006                             <-- SCF
------------------------------------------------------------------------ <-- SCF
 
Final energy, E             =  -3187.292968131     eV
Final free energy (E-TS)    =  -3187.302499514     eV
(energies not corrected for finite basis set)
 
NB est. 0K energy (E-0.5TS)      =  -3187.297733823     eV
 
 For future reference: finite basis dEtot/dlog(Ecut) =      -0.006756eV
 Total energy corrected for finite basis set =   -3187.302500 eV
 
 ******************* Unconstrained Forces *******************
 *                                                          *
 *               Cartesian components (eV/A)                *
 * -------------------------------------------------------- *
 *                         x            y            z      *
 *                                                          *
 * Ti              1     -0.00000      0.00000     -0.00000 *
 * Ti              2      0.00000     -0.00000      0.00000 *
 *                                                          *
 ************************************************************
 
 ******************** Constrained Forces ********************
 *                                                          *
 *               Cartesian components (eV/A)                *
 * -------------------------------------------------------- *
 *                         x            y            z      *
 *                                                          *
 * Ti              1     -0.00000      0.00000     -0.00000 *
 * Ti              2      0.00000     -0.00000      0.00000 *
 *                                                          *
 ************************************************************
 
 ***************** Stress Tensor *****************
 *                                               *
 *          Cartesian components (GPa)           *
 * --------------------------------------------- *
 *             x             y             z     *
 *                                               *
 *  x     -4.060712      0.000009     -0.000000  *
 *  y      0.000009     -4.060702      0.000000  *
 *  z     -0.000000      0.000000     -4.070646  *
 *                                               *
 *  Pressure:    4.0640                          *
 *                                               *
 *************************************************
 
 Pseudo atomic calculation performed for Ti 3s2 3p6 3d2 4s2
 
 Converged in 38 iterations to a total energy of -1586.0195 eV
 
Charge spilling parameter for spin component 1 = 0.07%
 
     Atomic Populations (Mulliken)
     -----------------------------
Species          Ion     s      p      d      f     Total  Charge (e)
=====================================================================
  Ti              1     2.30   6.92   2.79   0.00  12.00     0.00
  Ti              2     2.30   6.92   2.79   0.00  12.00    -0.00
=====================================================================
 
                 Bond                   Population      Length (A)
======================================================================
======================================================================
 
 
 A BibTeX formatted list of references used in this run has been written to 
 castep.bib
 
Initialisation time =      6.09 s
Calculation time    =    107.79 s
Finalisation time   =      0.14 s
Total time          =    114.02 s
Peak Memory Use     = 720600 kB
  
Overall parallel efficiency rating: Excellent (90%)                             
  
Data was distributed by:-
k-point (32-way); efficiency rating: Excellent (93%)                            
  
Parallel notes:
1) Calculation only took 113.9 s, so efficiency estimates may be inaccurate.    
 +-------------------------------------------------+
 |                                                 |
 |      CCC   AA    SSS  TTTTT  EEEEE  PPPP        |
 |     C     A  A  S       T    E      P   P       |
 |     C     AAAA   SS     T    EEE    PPPP        |
 |     C     A  A     S    T    E      P           |
 |      CCC  A  A  SSS     T    EEEEE  P           |
 |                                                 |
 +-------------------------------------------------+
 |                                                 |
 | Welcome to Academic Release CASTEP version 17.21|          
 | Ab Initio Total Energy Program                  |
 |                                                 |
 | Authors:                                        |
 | M. Segall, M. Probert, C. Pickard, P. Hasnip,   |
 | S. Clark, K. Refson, J. R. Yates, M. Payne      |
 |                                                 |
 | Contributors:                                   |
 | P. Lindan, P. Haynes, J. White, V. Milman,      |
 | N. Govind, M. Gibson, P. Tulip, V. Cocula,      |
 | B. Montanari, D. Quigley, M. Glover,            |
 | L. Bernasconi, A. Perlov, M. Plummer,           |
 | E. McNellis, J. Meyer, J. Gale, D. Jochym       |
 | J. Aarons, B. Walker, R. Gillen, D. Jones       |
 | T. Green, I. J. Bush, C. J. Armstrong,          |
 | E. J. Higgins, E. L. Brown, M. S. McFly,        |
 | J. Wilkins, B-C. Shih, P. J. P. Byrne           |
 |                                                 |
 | Copyright (c) 2000 - 2017                       |
 |                                                 |
 |     Distributed under the terms of an           |
 |     Agreement between the United Kingdom        |
 |     Car-Parrinello (UKCP) Consortium,           |
 |     Daresbury Laboratory and Accelrys, Inc.     |
 |                                                 |
 | Please cite                                     |
 |                                                 |
 |     "First principles methods using CASTEP"     |
 |                                                 |
 |         Zeitschrift fuer Kristallographie       |
 |           220(5-6) pp. 567-570 (2005)           |
 |                                                 |
 | S. J. Clark, M. D. Segall, C. J. Pickard,       |
 | P. J. Hasnip, M. J. Probert, K. Refson,         |
 | M. C. Payne                                     |
 |                                                 |
 |       in all publications arising from          |
 |              your use of CASTEP                 |
 |                                                 |
 +-------------------------------------------------+
 
 
 Compiled for linux_x86_64_ifort17 on Fri, 08 Dec 2017 17:04:03 +0000
 from code version 
 056e886bd5a1+ Castep172_branch Mon, 15 May 2017 14:45:35 +0100
 Compiler: Intel Fortran 17.0.4.196; Optimisation: fast
 MATHLIBS: Intel MKL(2017.0.3) (LAPACK version 3.7.0)
 FFT Lib : mkl
 Fundamental constants values: CODATA 2010
 
 Run started: Tue, 30 Jun 2020 00:56:53 +0100
 
 Atomic calculation performed for Ti: 1s2 2s2 2p6 3s2 3p6 3d2 4s2
 
 Converged in 78 iterations to an ae energy of -23176.516 eV
 
   ============================================================                
   | Pseudopotential Report - Date of generation 30-06-2020   |                
   ------------------------------------------------------------                
   | Element: Ti Ionic charge: 12.00 Level of theory: LDA     |                
   | Atomic Solver: Koelling-Harmon                           |                
   |                                                          |                
   |               Reference Electronic Structure             |                
   |         Orbital         Occupation         Energy        |                
   |            3s              2.000           -2.288        |                
   |            3p              6.000           -1.425        |                
   |            4s              2.000           -0.169        |                
   |            3d              2.000           -0.164        |                
   |                                                          |                
   |                 Pseudopotential Definition               |                
   |        Beta     l      e      Rc     scheme   norm       |                
   |          1      0   -2.288   1.793     qc      0         |                
   |          2      0   -0.169   1.793     qc      0         |                
   |          3      0    0.250   1.793     qc      0         |                
[...]
   | Partial core correction Rc = 1.263                       |                
   ------------------------------------------------------------                
   | "3|1.8|9|10|11|30U:40:31:32(qc=5.5)"                     |                
   ------------------------------------------------------------                
   |      Author: Chris J. Pickard, Cambridge University      |                
   ============================================================                
 
 Pseudo atomic calculation performed for Ti 3s2 3p6 3d2 4s2
 
 Converged in 38 iterations to a total energy of -1586.0195 eV
 
 Calculation parallelised over 32 processes.
 Data is distributed by k-point(32-way)

 ************************************ Title ************************************
 

 ***************************** General Parameters ******************************
  
 output verbosity                               : normal  (1)
 write checkpoint data to                       : castep.check
 type of calculation                            : single point energy
 stress calculation                             : on
 density difference calculation                 : off
 electron localisation func (ELF) calculation   : off
 Hirshfeld analysis                             : off
 unlimited duration calculation
 timing information                             : on
 memory usage estimate                          : on
 write final potential to formatted file        : off
 write final density to formatted file          : off
 write BibTeX reference list                    : on
 write OTFG pseudopotential files               : on
 write electrostatic potential file             : on
 write bands file                               : on
 checkpoint writing                             : off
  
 output         length unit                     : A
 output           mass unit                     : amu
 output           time unit                     : ps
 output         charge unit                     : e
 output           spin unit                     : hbar/2
 output         energy unit                     : eV
 output          force unit                     : eV/A
 output       velocity unit                     : A/ps
 output       pressure unit                     : GPa
 output     inv_length unit                     : 1/A
 output      frequency unit                     : cm-1
 output force constant unit                     : eV/A**2
 output         volume unit                     : A**3
 output   IR intensity unit                     : (D/A)**2/amu
 output         dipole unit                     : D
 output         efield unit                     : eV/A/e
 output        entropy unit                     : J/mol/K
  
 wavefunctions paging                           : none
 random number generator seed                   : randomised (20806653)
 data distribution                              : optimal for this architecture
 optimization strategy                          : maximize speed(+++)

 *********************** Exchange-Correlation Parameters ***********************
  
 using functional                               : Local Density Approximation
 relativistic treatment                         : Koelling-Harmon
 DFT+D: Semi-empirical dispersion correction    : off

 ************************* Pseudopotential Parameters **************************
  
 pseudopotential representation                 : reciprocal space
 <beta|phi> representation                      : reciprocal space
 spin-orbit coupling                            : off

 **************************** Basis Set Parameters *****************************
  
 plane wave basis set cut-off                   :   700.0000   eV
 size of standard grid                          :     1.7500
 size of   fine   grid                          :     2.0000
 size of   fine   gmax                          :    27.1093   1/A
 finite basis set correction                    : automatic
 number of sample energies                      :          3
           sample  spacing                      :     5.0000   eV

 **************************** Electronic Parameters ****************************
  
 number of  electrons                           :  24.00    
 net charge of system                           :  0.000    
 treating system as non-spin-polarized
 number of bands                                :         16

 ********************* Electronic Minimization Parameters **********************
  
 Method: Treating system as metallic with density mixing treatment of electrons,
         and number of  SD  steps               :          1
         and number of  CG  steps               :          4
  
 total energy / atom convergence tol.           : 0.1000E-06   eV
 eigen-energy convergence tolerance             : 0.1667E-07   eV
 max force / atom convergence tol.              : 0.1000E-02   eV/A
 convergence tolerance window                   :          3   cycles
 max. number of SCF cycles                      :         30
 number of fixed-spin iterations                :         10
 smearing scheme                                : Gaussian
 smearing width                                 : 0.1000       eV
 Fermi energy convergence tolerance             : 0.2721E-13   eV
 periodic dipole correction                     : NONE

 ************************** Density Mixing Parameters **************************
  
 density-mixing scheme                          : Pulay
 max. length of mixing history                  :         20
 charge density mixing amplitude                : 0.8000    
 cut-off energy for mixing                      :  700.0       eV

 *********************** Population Analysis Parameters ************************
  
 Population analysis with cutoff                :  3.000       A

 *******************************************************************************
  
 
                           -------------------------------
                                      Unit Cell
                           -------------------------------
        Real Lattice(A)                      Reciprocal Lattice(1/A)
   2.8587860   0.0285880   0.0000000        2.1853801   1.2470755   0.0000000
  -1.4046350   2.4614880   0.0000000       -0.0253813   2.5381127   0.0000000
   0.0000000   0.0000000   4.6187090        0.0000000   0.0000000   1.3603770
 
                       Lattice parameters(A)       Cell Angles
                    a =    2.858929          alpha =   90.000000
                    b =    2.834065          beta  =   90.000000
                    c =    4.618709          gamma =  119.138070
 
                       Current cell volume =   32.686710       A**3
                                   density =    2.928836   AMU/A**3
                                           =    4.863445     g/cm^3
 
                           -------------------------------
                                     Cell Contents
                           -------------------------------
                         Total number of ions in cell =    2
                      Total number of species in cell =    1
                        Max number of any one species =    2
 
            xxxxxxxxxxxxxxxxxxxxxxxxxxxxxxxxxxxxxxxxxxxxxxxxxxxxxxxxxxxx
            x  Element    Atom        Fractional coordinates of atoms  x
            x            Number           u          v          w      x
            x----------------------------------------------------------x
            x  Ti           1         0.000000   0.000000   0.000000   x 
            x  Ti           2         0.333333   0.666667   0.500000   x 
            xxxxxxxxxxxxxxxxxxxxxxxxxxxxxxxxxxxxxxxxxxxxxxxxxxxxxxxxxxxx
 
 
                         No user defined ionic velocities
 
                           -------------------------------
                                   Details of Species
                           -------------------------------
 
                               Mass of species in AMU
                                    Ti   47.8670000
 
                          Electric Quadrupole Moment (Barn)
                                    Ti    0.3020000 Isotope 47
 
                          Files used for pseudopotentials:
                                    Ti 3|1.8|9|10|11|30U:40:31:32(qc=5.5)
 
                           -------------------------------
                              k-Points For BZ Sampling
                           -------------------------------
                       MP grid size for SCF calculation is 21 21 11
                            with an offset of   0.000  0.000  0.000
                       Number of kpoints used =          2426
 
                           -------------------------------
                               Symmetry and Constraints
                           -------------------------------
 
                      Maximum deviation from symmetry =  0.00000         ANG
 
                      Number of symmetry operations   =           1
                      Number of ionic constraints     =           3
                      Point group of crystal =     1: C1, 1, 1
                      Space group of crystal =    11: P2_1/m, -P 2yb
 
             Set iprint > 1 for details on symmetry rotations/translations
 
                         Centre of mass is constrained
             Set iprint > 1 for details of linear ionic constraints
 
                         Number of cell constraints= 0
                         Cell constraints are:  1 2 3 4 5 6
 
                         External pressure/stress (GPa)
                          0.00000   0.00000   0.00000
                                    0.00000   0.00000
                                              0.00000
  
+---------------- MEMORY AND SCRATCH DISK ESTIMATES PER PROCESS --------------+
|                                                     Memory          Disk    |
| Baseline code, static data and system overhead      388.0 MB         0.0 MB |
| BLAS internal memory storage                          0.0 MB         0.0 MB |
| Model and support data                              104.1 MB         0.0 MB |
| Electronic energy minimisation requirements          60.6 MB         0.0 MB |
| Force calculation requirements                        4.6 MB         0.0 MB |
| Stress calculation requirements                       5.0 MB         0.0 MB |
|                                               ----------------------------- |
| Approx. total storage required per process          552.8 MB         0.0 MB |
|                                                                             |
| Requirements will fluctuate during execution and may exceed these estimates |
+-----------------------------------------------------------------------------+
Calculating finite basis set correction with  3 cut-off energies.
Calculating total energy with cut-off of  690.000 eV.
------------------------------------------------------------------------ <-- SCF
SCF loop      Energy           Fermi           Energy gain       Timer   <-- SCF
                               energy          per atom          (sec)   <-- SCF
------------------------------------------------------------------------ <-- SCF
Initial  -2.89439090E+003  0.00000000E+000                         8.70  <-- SCF
      1  -3.13434879E+003  1.11296408E+001   1.19978949E+002      14.03  <-- SCF
          Max force change        7.609E-002                             <-- SCF
      2  -3.18703615E+003  9.73577057E+000   2.63436766E+001      18.68  <-- SCF
          Max force change        3.960E-002                             <-- SCF
      3  -3.18763276E+003  9.67772119E+000   2.98305012E-001      23.53  <-- SCF
          Max force change        2.038E-002                             <-- SCF
      4  -3.18741915E+003  8.93195367E+000  -1.06803741E-001      28.53  <-- SCF
          Max force change        2.536E-001                             <-- SCF
      5  -3.18730598E+003  9.22731936E+000  -5.65863182E-002      33.67  <-- SCF
          Max force change        5.369E-002                             <-- SCF
      6  -3.18730609E+003  9.20823664E+000   5.63891554E-005      39.56  <-- SCF
          Max force change        1.105E-002                             <-- SCF
      7  -3.18730581E+003  9.20788312E+000  -1.38435170E-004      45.23  <-- SCF
          Max force change        8.706E-004                             <-- SCF
      8  -3.18730580E+003  9.20592001E+000  -6.01407150E-006      50.89  <-- SCF
          Max force change        5.423E-003                             <-- SCF
      9  -3.18730580E+003  9.20622237E+000  -5.51375842E-008      54.69  <-- SCF
          Max force change        2.854E-003                             <-- SCF
     10  -3.18730580E+003  9.20621491E+000   4.84531391E-009      58.16  <-- SCF
          Max force change        6.148E-004                             <-- SCF
     11  -3.18730580E+003  9.20620820E+000   1.27880711E-009      61.54  <-- SCF
          Max force change        2.156E-005                             <-- SCF
------------------------------------------------------------------------ <-- SCF
 
Final energy, E             =  -3187.295727547     eV
Final free energy (E-TS)    =  -3187.305800671     eV
(energies not corrected for finite basis set)
 
NB est. 0K energy (E-0.5TS)      =  -3187.300764109     eV
 
Calculating total energy with cut-off of  695.000 eV.
------------------------------------------------------------------------ <-- SCF
SCF loop      Energy           Fermi           Energy gain       Timer   <-- SCF
                               energy          per atom          (sec)   <-- SCF
------------------------------------------------------------------------ <-- SCF
Initial  -3.18729573E+003  0.00000000E+000                        63.23  <-- SCF
      1  -3.18730585E+003  9.20617809E+000   5.06077965E-003      67.11  <-- SCF
          Max force change        1.708E-002                             <-- SCF
      2  -3.18730585E+003  9.20617809E+000   4.52512877E-009      70.48  <-- SCF
          Max force change        1.654E-006                             <-- SCF
      3  -3.18730585E+003  9.20619427E+000   1.69684595E-008      73.82  <-- SCF
          Max force change        1.846E-005                             <-- SCF
      4  -3.18730585E+003  9.20619335E+000  -1.64195430E-008      77.14  <-- SCF
          Max force change        1.497E-006                             <-- SCF
------------------------------------------------------------------------ <-- SCF
 
Final energy, E             =  -3187.295775938     eV
Final free energy (E-TS)    =  -3187.305849116     eV
(energies not corrected for finite basis set)
 
NB est. 0K energy (E-0.5TS)      =  -3187.300812527     eV
 
Calculating total energy with cut-off of  700.000 eV.
------------------------------------------------------------------------ <-- SCF
SCF loop      Energy           Fermi           Energy gain       Timer   <-- SCF
                               energy          per atom          (sec)   <-- SCF
------------------------------------------------------------------------ <-- SCF
Initial  -3.18729578E+003  0.00000000E+000                        78.84  <-- SCF
      1  -3.18730590E+003  9.20618553E+000   5.06193735E-003      82.75  <-- SCF
          Max force change        1.710E-002                             <-- SCF
      2  -3.18730590E+003  9.20618553E+000   5.54156194E-009      86.07  <-- SCF
          Max force change        8.745E-007                             <-- SCF
      3  -3.18730590E+003  9.20618564E+000   2.98067819E-007      90.54  <-- SCF
          Max force change        6.211E-006                             <-- SCF
      4  -3.18730590E+003  9.20618728E+000  -3.15437476E-007      94.90  <-- SCF
          Max force change        5.879E-007                             <-- SCF
      5  -3.18730590E+003  9.20619564E+000   4.35420867E-009      98.22  <-- SCF
          Max force change        6.817E-007                             <-- SCF
      6  -3.18730590E+003  9.20619176E+000   1.04446871E-009     101.50  <-- SCF
          Max force change        1.474E-006                             <-- SCF
------------------------------------------------------------------------ <-- SCF
 
Final energy, E             =  -3187.295826620     eV
Final free energy (E-TS)    =  -3187.305899798     eV
(energies not corrected for finite basis set)
 
NB est. 0K energy (E-0.5TS)      =  -3187.300863209     eV
 
 For future reference: finite basis dEtot/dlog(Ecut) =      -0.006889eV
 Total energy corrected for finite basis set =   -3187.305900 eV
 
 ******************* Unconstrained Forces *******************
 *                                                          *
 *               Cartesian components (eV/A)                *
 * -------------------------------------------------------- *
 *                         x            y            z      *
 *                                                          *
 * Ti              1     -0.04408      0.00137      0.00000 *
 * Ti              2      0.04408     -0.00137     -0.00000 *
 *                                                          *
 ************************************************************
 
 ******************** Constrained Forces ********************
 *                                                          *
 *               Cartesian components (eV/A)                *
 * -------------------------------------------------------- *
 *                         x            y            z      *
 *                                                          *
 * Ti              1     -0.04408      0.00137      0.00000 *
 * Ti              2      0.04408     -0.00137     -0.00000 *
 *                                                          *
 ************************************************************
 
 ***************** Stress Tensor *****************
 *                                               *
 *          Cartesian components (GPa)           *
 * --------------------------------------------- *
 *             x             y             z     *
 *                                               *
 *  x      1.112445      1.334940      0.000001  *
 *  y      1.334940      1.088075     -0.000000  *
 *  z      0.000001     -0.000000      3.380302  *
 *                                               *
 *  Pressure:   -1.8603                          *
 *                                               *
 *************************************************
 
 Pseudo atomic calculation performed for Ti 3s2 3p6 3d2 4s2
 
 Converged in 38 iterations to a total energy of -1586.0195 eV
 
Charge spilling parameter for spin component 1 = 0.07%
 
     Atomic Populations (Mulliken)
     -----------------------------
Species          Ion     s      p      d      f     Total  Charge (e)
=====================================================================
  Ti              1     2.32   6.92   2.76   0.00  12.00    -0.00
  Ti              2     2.32   6.92   2.76   0.00  12.00     0.00
=====================================================================
 
                 Bond                   Population      Length (A)
======================================================================
======================================================================
 
 
 A BibTeX formatted list of references used in this run has been written to 
 castep.bib
 
Initialisation time =      5.94 s
Calculation time    =     99.01 s
Finalisation time   =      0.13 s
Total time          =    105.08 s
Peak Memory Use     = 719600 kB
  
Overall parallel efficiency rating: Excellent (91%)                             
  
Data was distributed by:-
k-point (32-way); efficiency rating: Excellent (93%)                            
  
Parallel notes:
1) Calculation only took 105.0 s, so efficiency estimates may be inaccurate.    
