108
Lattice="15.26366196 0.0 0.0 6.551159357227072 13.786286211498993 0.0 -10.907410658616403 -6.893143105751308 8.154283983102717" Properties=species:S:1:pos:R:3:forces:R:3 pbc="T T T"
Ti       0.01000000       0.00000000       0.00000000      -0.07071904       0.00986599      -0.00000000 
Ti       5.08788732       0.00000000       0.00000000       0.00098308      -0.00002802      -0.00000000 
Ti      10.17577464       0.00000000       0.00000000       0.00100153      -0.00002844      -0.00000000 
Ti       2.18371979       4.59542874       0.00000000       0.00000457       0.00044044      -0.00000000 
Ti       7.27160711       4.59542874       0.00000000       0.00000800       0.00000417      -0.00000000 
Ti      12.35949443       4.59542874       0.00000000      -0.00014044       0.00010784      -0.00000000 
Ti       4.36743957       9.19085747       0.00000000       0.00000803       0.00044023      -0.00000000 
Ti       9.45532689       9.19085747       0.00000000      -0.00014090       0.00010615      -0.00000000 
Ti      14.54321421       9.19085747       0.00000000       0.00000795       0.00000412      -0.00000000 
Ti      -3.63580355      -2.29771437       2.71809466       0.00048308       0.00024113      -0.00046279 
Ti       1.45208377      -2.29771437       2.71809466      -0.00010608       0.00094557      -0.00116547 
Ti       6.53997109      -2.29771437       2.71809466       0.00005211      -0.00000246       0.00000795 
Ti      -1.45208377       2.29771437       2.71809466      -0.00011534       0.00094666       0.00116583 
Ti       3.63580355       2.29771437       2.71809466       0.00047391       0.00023687       0.00046007 
Ti       8.72369087       2.29771437       2.71809466       0.00005096      -0.00000202      -0.00000746 
Ti       0.73163602       6.89314311       2.71809466       0.00002809       0.00000903      -0.00003033 
Ti       5.81952334       6.89314311       2.71809466       0.00002752       0.00000905       0.00002950 
Ti      10.90741066       6.89314311       2.71809466      -0.00007886       0.00000919      -0.00000160 
Ti      -7.27160711      -4.59542874       5.43618932       0.00047391       0.00023687      -0.00046007 
Ti      -2.18371979      -4.59542874       5.43618932       0.00005096      -0.00000202       0.00000746 
Ti       2.90416753      -4.59542874       5.43618932      -0.00011534       0.00094666      -0.00116583 
Ti      -5.08788732      -0.00000000       5.43618932       0.00002752       0.00000905      -0.00002950 
Ti      -0.00000000      -0.00000000       5.43618932      -0.00007886       0.00000919       0.00000159 
Ti       5.08788732      -0.00000000       5.43618932       0.00002809       0.00000903       0.00003033 
Ti      -2.90416753       4.59542874       5.43618932      -0.00010608       0.00094557       0.00116547 
Ti       2.18371979       4.59542874       5.43618932       0.00005211      -0.00000246      -0.00000796 
Ti       7.27160711       4.59542874       5.43618932       0.00048308       0.00024113       0.00046279 
Al       3.63580355       2.29771437       0.00000000      -0.00065040      -0.00044682      -0.00000000 
Al       8.72369087       2.29771437       0.00000000       0.00007709      -0.00002123      -0.00000000 
Al      13.81157819       2.29771437       0.00000000       0.00842546      -0.01381666      -0.00000000 
Al       5.81952334       6.89314311       0.00000000      -0.00000925       0.00000345      -0.00000000 
Al      10.90741066       6.89314311       0.00000000       0.00000111       0.00000490      -0.00000000 
Al      15.99529798       6.89314311       0.00000000      -0.00000957       0.00000389      -0.00000000 
Al       8.00324312      11.48857184       0.00000000       0.00847580      -0.01408218      -0.00000000 
Al      13.09113044      11.48857184       0.00000000       0.00007998      -0.00002402      -0.00000000 
Al      18.17901776      11.48857184       0.00000000      -0.00062283      -0.00042767      -0.00000000 
Al      -0.00000000       0.00000000       2.71809466      -0.00060792       0.00038583      -0.00008054 
Al       5.08788732       0.00000000       2.71809466      -0.00022402       0.00003085      -0.00012434 
Al      10.17577464       0.00000000       2.71809466      -0.00022240       0.00003137       0.00012575 
Al       2.18371978       4.59542874       2.71809466      -0.00010094      -0.00011313      -0.00006272 
Al       7.27160710       4.59542874       2.71809466       0.00001699       0.00001819       0.00003369 
Al      12.35949442       4.59542874       2.71809466       0.00005006      -0.00015701      -0.00015833 
Al       4.36743957       9.19085748       2.71809466      -0.00010042      -0.00011497       0.00006353 
Al       9.45532689       9.19085748       2.71809466       0.00005035      -0.00015803       0.00015966 
Al      14.54321421       9.19085748       2.71809466       0.00001698       0.00001848      -0.00003551 
Al      -3.63580356      -2.29771437       5.43618932       0.00001699       0.00001819      -0.00003369 
Al       1.45208376      -2.29771437       5.43618932       0.00005006      -0.00015701       0.00015833 
Al       6.53997108      -2.29771437       5.43618932      -0.00010094      -0.00011313       0.00006272 
Al      -1.45208377       2.29771437       5.43618932       0.00005035      -0.00015803      -0.00015966 
Al       3.63580355       2.29771437       5.43618932       0.00001698       0.00001848       0.00003551 
Al       8.72369087       2.29771437       5.43618932      -0.00010042      -0.00011497      -0.00006353 
Al       0.73163602       6.89314311       5.43618932      -0.00022402       0.00003085       0.00012434 
Al       5.81952334       6.89314311       5.43618932      -0.00022240       0.00003137      -0.00012575 
Al      10.90741066       6.89314311       5.43618932      -0.00060792       0.00038583       0.00008053 
Al       2.54394366       0.00000000       1.35904733       0.01031339       0.00003020       0.00505677 
Al       7.63183098       0.00000000       1.35904733       0.00003577      -0.00000245       0.00000093 
Al      12.71971830       0.00000000       1.35904733       0.00981821       0.00003108      -0.00475731 
Al       4.72766345       4.59542874       1.35904733       0.00004225       0.00007587       0.00003501 
Al       9.81555077       4.59542874       1.35904733       0.00004215      -0.00005554       0.00000257 
Al      14.90343809       4.59542874       1.35904733       0.00000271      -0.00021680       0.00007834 
Al       6.91138323       9.19085747       1.35904733       0.00000271      -0.00021632      -0.00007783 
Al      11.99927055       9.19085747       1.35904733       0.00004281      -0.00005662      -0.00000240 
Al      17.08715787       9.19085747       1.35904733       0.00004121       0.00007448      -0.00003518 
Al      -1.09185989      -2.29771437       4.07714199      -0.00016731       0.00018529      -0.00004584 
Al       3.99602743      -2.29771437       4.07714199       0.00006088      -0.00010115       0.00017184 
Al       9.08391475      -2.29771437       4.07714199       0.00001817       0.00001226      -0.00001478 
Al       1.09185989       2.29771437       4.07714199      -0.00017046       0.00018722       0.00004751 
Al       6.17974721       2.29771437       4.07714199       0.00001876       0.00001157       0.00001495 
Al      11.26763453       2.29771437       4.07714199       0.00006066      -0.00009973      -0.00016973 
Al       3.27557968       6.89314311       4.07714199       0.00000274       0.00000130      -0.00000010 
Al       8.36346700       6.89314311       4.07714199       0.00035245       0.00007902       0.00038556 
Al      13.45135432       6.89314311       4.07714199       0.00034825       0.00007775      -0.00037829 
Al      -4.72766345      -4.59542874       6.79523665       0.00008686       0.00001379      -0.00004147 
Al       0.36022387      -4.59542874       6.79523665       0.00067947      -0.00030291       0.00028945 
Al       5.44811119      -4.59542874       6.79523665       0.00225247       0.00362307      -0.00229815 
Al      -2.54394366      -0.00000000       6.79523665       0.00000688      -0.00002421      -0.00004346 
Al       2.54394366      -0.00000000       6.79523665       0.00000682      -0.00002408       0.00004363 
Al       7.63183098      -0.00000000       6.79523665       0.00000813       0.00001526      -0.00000013 
Al      -0.36022387       4.59542874       6.79523665       0.00066564      -0.00029750      -0.00029150 
Al       4.72766345       4.59542874       6.79523665       0.00008385       0.00001137       0.00004078 
Al       9.81555077       4.59542874       6.79523665       0.00226010       0.00358042       0.00227058 
Al       1.09185989       2.29771437       1.35904733       0.00225249       0.00362305       0.00229815 
Al       6.17974721       2.29771437       1.35904733       0.00008688       0.00001376       0.00004147 
Al      11.26763453       2.29771437       1.35904733       0.00067949      -0.00030294      -0.00028945 
Al       3.27557968       6.89314311       1.35904733       0.00000815       0.00001524       0.00000013 
Al       8.36346700       6.89314311       1.35904733       0.00000690      -0.00002424       0.00004346 
Al      13.45135432       6.89314311       1.35904733       0.00000684      -0.00002410      -0.00004363 
Al       5.45929946      11.48857184       1.35904733       0.00226012       0.00358040      -0.00227057 
Al      10.54718678      11.48857184       1.35904733       0.00066567      -0.00029752       0.00029150 
Al      15.63507410      11.48857184       1.35904733       0.00008388       0.00001135      -0.00004078 
Al      -2.54394366       0.00000000       4.07714199       0.00035247       0.00007900      -0.00038555 
Al       2.54394366       0.00000000       4.07714199       0.00034827       0.00007773       0.00037829 
Al       7.63183098       0.00000000       4.07714199       0.00000276       0.00000127       0.00000010 
Al      -0.36022388       4.59542874       4.07714199       0.00006090      -0.00010117      -0.00017184 
Al       4.72766344       4.59542874       4.07714199       0.00001820       0.00001224       0.00001479 
Al       9.81555076       4.59542874       4.07714199      -0.00016729       0.00018527       0.00004584 
Al       1.82349591       9.19085748       4.07714199       0.00001879       0.00001155      -0.00001495 
Al       6.91138323       9.19085748       4.07714199       0.00006068      -0.00009975       0.00016973 
Al      11.99927055       9.19085748       4.07714199      -0.00017043       0.00018720      -0.00004751 
Al      -6.17974722      -2.29771437       6.79523665       0.00004227       0.00007584      -0.00003500 
Al      -1.09185990      -2.29771437       6.79523665       0.00004217      -0.00005556      -0.00000257 
Al       3.99602742      -2.29771437       6.79523665       0.00000273      -0.00021682      -0.00007834 
Al      -3.99602743       2.29771437       6.79523665       0.00000273      -0.00021634       0.00007783 
Al       1.09185989       2.29771437       6.79523665       0.00004283      -0.00005664       0.00000240 
Al       6.17974721       2.29771437       6.79523665       0.00004123       0.00007445       0.00003518 
Al      -1.81230764       6.89314311       6.79523665       0.01031341       0.00003017      -0.00505677 
Al       3.27557968       6.89314311       6.79523665       0.00003579      -0.00000247      -0.00000093 
Al       8.36346700       6.89314311       6.79523665       0.00981823       0.00003105       0.00475731 
