108
Lattice="15.26366196 0.0 0.0 6.551159357227072 13.786286211498993 0.0 -10.907410658616403 -6.893143105751308 8.154283983102717" Properties=species:S:1:pos:R:3:forces:R:3 pbc="T T T"
Ti       0.00000000       0.00000000       0.00000000      -0.00062569      -0.00042828      -0.00000000 
Ti       5.08788732       0.00000000       0.00000000       0.00848060      -0.01408817      -0.00000000 
Ti      10.17577464       0.00000000       0.00000000       0.00007928      -0.00003873      -0.00000000 
Ti       2.18371979       4.59542874       0.00000000       0.00842059      -0.01381057      -0.00000000 
Ti       7.27160711       4.59542874       0.00000000      -0.00064754      -0.00044615      -0.00000000 
Ti      12.35949443       4.59542874       0.00000000       0.00007773      -0.00003746      -0.00000000 
Ti       4.36743957       9.19085747       0.00000000      -0.00000948       0.00001926      -0.00000000 
Ti       9.45532689       9.19085747       0.00000000      -0.00000940       0.00001913      -0.00000000 
Ti      14.54321421       9.19085747       0.00000000       0.00000108       0.00000493      -0.00000000 
Ti      -3.63580355      -2.29771437       2.71809466       0.00001699       0.00001851      -0.00004816 
Ti       1.45208377      -2.29771437       2.71809466      -0.00010042      -0.00002795      -0.00000976 
Ti       6.53997109      -2.29771437       2.71809466       0.00005031      -0.00015768       0.00015909 
Ti      -1.45208377       2.29771437       2.71809466      -0.00022162      -0.00005534       0.00005148 
Ti       3.63580355       2.29771437       2.71809466      -0.00060796       0.00038586      -0.00006999 
Ti       8.72369087       2.29771437       2.71809466      -0.00022489      -0.00005625      -0.00005165 
Ti       0.73163602       6.89314311       2.71809466       0.00005004      -0.00015730      -0.00015890 
Ti       5.81952334       6.89314311       2.71809466      -0.00010099      -0.00002624       0.00001096 
Ti      10.90741066       6.89314311       2.71809466       0.00001693       0.00001822       0.00004725 
Ti      -7.27160711      -4.59542874       5.43618932      -0.00060796       0.00038586       0.00006998 
Ti      -2.18371979      -4.59542874       5.43618932      -0.00022489      -0.00005625       0.00005165 
Ti       2.90416753      -4.59542874       5.43618932      -0.00022162      -0.00005534      -0.00005149 
Ti      -5.08788732      -0.00000000       5.43618932      -0.00010099      -0.00002624      -0.00001096 
Ti      -0.00000000      -0.00000000       5.43618932       0.00001693       0.00001822      -0.00004725 
Ti       5.08788732      -0.00000000       5.43618932       0.00005004      -0.00015730       0.00015890 
Ti      -2.90416753       4.59542874       5.43618932      -0.00010042      -0.00002795       0.00000976 
Ti       2.18371979       4.59542874       5.43618932       0.00005031      -0.00015768      -0.00015909 
Ti       7.27160711       4.59542874       5.43618932       0.00001699       0.00001851       0.00004816 
Al       3.64580355       2.29771437       0.00000000      -0.04422848       0.01729808      -0.00000000 
Al       8.72369087       2.29771437       0.00000000       0.00005818      -0.00017827      -0.00000000 
Al      13.81157819       2.29771437       0.00000000       0.00006160      -0.00017560      -0.00000000 
Al       5.81952334       6.89314311       0.00000000      -0.00047447       0.00007866      -0.00000000 
Al      10.90741066       6.89314311       0.00000000       0.00007889       0.00005384      -0.00000000 
Al      15.99529798       6.89314311       0.00000000      -0.00008429       0.00009111      -0.00000000 
Al       8.00324312      11.48857184       0.00000000      -0.00047264       0.00007448      -0.00000000 
Al      13.09113044      11.48857184       0.00000000      -0.00008700       0.00009416      -0.00000000 
Al      18.17901776      11.48857184       0.00000000       0.00007782       0.00005327      -0.00000000 
Al      -0.00000000       0.00000000       2.71809466      -0.00014366      -0.00014713      -0.00024846 
Al       5.08788732       0.00000000       2.71809466       0.00002100       0.00030299      -0.00044706 
Al      10.17577464       0.00000000       2.71809466       0.00001985      -0.00000122       0.00000114 
Al       2.18371978       4.59542874       2.71809466       0.00001280       0.00030925       0.00044943 
Al       7.27160710       4.59542874       2.71809466      -0.00014519      -0.00015073       0.00025082 
Al      12.35949442       4.59542874       2.71809466       0.00001927      -0.00000102      -0.00000104 
Al       4.36743957       9.19085748       2.71809466       0.00001063       0.00000322      -0.00000978 
Al       9.45532689       9.19085748       2.71809466       0.00001033       0.00000317       0.00000938 
Al      14.54321421       9.19085748       2.71809466      -0.00001527      -0.00001873      -0.00000095 
Al      -3.63580356      -2.29771437       5.43618932      -0.00014519      -0.00015073      -0.00025082 
Al       1.45208376      -2.29771437       5.43618932       0.00001927      -0.00000102       0.00000104 
Al       6.53997108      -2.29771437       5.43618932       0.00001280       0.00030925      -0.00044943 
Al      -1.45208377       2.29771437       5.43618932       0.00001033       0.00000317      -0.00000939 
Al       3.63580355       2.29771437       5.43618932      -0.00001527      -0.00001873       0.00000094 
Al       8.72369087       2.29771437       5.43618932       0.00001063       0.00000322       0.00000978 
Al       0.73163602       6.89314311       5.43618932       0.00002100       0.00030299       0.00044706 
Al       5.81952334       6.89314311       5.43618932       0.00001985      -0.00000122      -0.00000114 
Al      10.90741066       6.89314311       5.43618932      -0.00014366      -0.00014713       0.00024846 
Al       2.54394366       0.00000000       1.35904733       0.00092018       0.00274530      -0.00183863 
Al       7.63183098       0.00000000       1.35904733      -0.00012160       0.00015580       0.00003164 
Al      12.71971830       0.00000000       1.35904733       0.00033504       0.00001616      -0.00016810 
Al       4.72766345       4.59542874       1.35904733       0.00091569       0.00279035       0.00186701 
Al       9.81555077       4.59542874       1.35904733       0.00033965       0.00001733       0.00016988 
Al      14.90343809       4.59542874       1.35904733      -0.00011649       0.00015265      -0.00003017 
Al       6.91138323       9.19085747       1.35904733      -0.00000095       0.00007426       0.00000017 
Al      11.99927055       9.19085747       1.35904733       0.00000743      -0.00009373       0.00004182 
Al      17.08715787       9.19085747       1.35904733       0.00000711      -0.00009389      -0.00004145 
Al      -1.09185989      -2.29771437       4.07714199       0.00003122       0.00001923      -0.00006606 
Al       3.99602743      -2.29771437       4.07714199       0.00005273      -0.00007707       0.00022534 
Al       9.08391475      -2.29771437       4.07714199      -0.00011277       0.00002172       0.00014355 
Al       1.09185989       2.29771437       4.07714199       0.00001607       0.00003126       0.00010887 
Al       6.17974721       2.29771437       4.07714199       0.00001811       0.00003033      -0.00011332 
Al      11.26763453       2.29771437       4.07714199      -0.00000256      -0.00000119      -0.00000004 
Al       3.27557968       6.89314311       4.07714199       0.00005248      -0.00007863      -0.00022694 
Al       8.36346700       6.89314311       4.07714199       0.00003091       0.00001965       0.00006602 
Al      13.45135432       6.89314311       4.07714199      -0.00011204       0.00001875      -0.00014751 
Al      -4.72766345      -4.59542874       6.79523665       0.00675605      -0.00027839      -0.00385133 
Al       0.36022387      -4.59542874       6.79523665       0.00006586      -0.00003976      -0.00000039 
Al       5.44811119      -4.59542874       6.79523665       0.00640801      -0.00027133       0.00363984 
Al      -2.54394366      -0.00000000       6.79523665       0.00014787       0.00029427      -0.00016673 
Al       2.54394366      -0.00000000       6.79523665       0.00009568      -0.00006670       0.00001682 
Al       7.63183098      -0.00000000       6.79523665       0.00000279      -0.00007231      -0.00002920 
Al      -0.36022387       4.59542874       6.79523665       0.00000485      -0.00007110       0.00002950 
Al       4.72766345       4.59542874       6.79523665       0.00009567      -0.00006733      -0.00001728 
Al       9.81555077       4.59542874       6.79523665       0.00014619       0.00029120       0.00016524 
Al       1.09185989       2.29771437       1.35904733       0.00640803      -0.00027135      -0.00363984 
Al       6.17974721       2.29771437       1.35904733       0.00675608      -0.00027842       0.00385133 
Al      11.26763453       2.29771437       1.35904733       0.00006588      -0.00003978       0.00000039 
Al       3.27557968       6.89314311       1.35904733       0.00000282      -0.00007233       0.00002920 
Al       8.36346700       6.89314311       1.35904733       0.00014789       0.00029425       0.00016673 
Al      13.45135432       6.89314311       1.35904733       0.00009570      -0.00006673      -0.00001682 
Al       5.45929946      11.48857184       1.35904733       0.00014621       0.00029118      -0.00016524 
Al      10.54718678      11.48857184       1.35904733       0.00000487      -0.00007112      -0.00002950 
Al      15.63507410      11.48857184       1.35904733       0.00009569      -0.00006735       0.00001729 
Al      -2.54394366       0.00000000       4.07714199       0.00003093       0.00001963      -0.00006602 
Al       2.54394366       0.00000000       4.07714199      -0.00011202       0.00001873       0.00014751 
Al       7.63183098       0.00000000       4.07714199       0.00005250      -0.00007866       0.00022694 
Al      -0.36022388       4.59542874       4.07714199       0.00005275      -0.00007709      -0.00022534 
Al       4.72766344       4.59542874       4.07714199      -0.00011275       0.00002169      -0.00014355 
Al       9.81555076       4.59542874       4.07714199       0.00003125       0.00001921       0.00006606 
Al       1.82349591       9.19085748       4.07714199       0.00001813       0.00003030       0.00011332 
Al       6.91138323       9.19085748       4.07714199      -0.00000254      -0.00000121       0.00000004 
Al      11.99927055       9.19085748       4.07714199       0.00001609       0.00003124      -0.00010887 
Al      -6.17974722      -2.29771437       6.79523665       0.00091571       0.00279033      -0.00186701 
Al      -1.09185990      -2.29771437       6.79523665       0.00033967       0.00001731      -0.00016988 
Al       3.99602742      -2.29771437       6.79523665      -0.00011647       0.00015263       0.00003017 
Al      -3.99602743       2.29771437       6.79523665      -0.00000093       0.00007424      -0.00000017 
Al       1.09185989       2.29771437       6.79523665       0.00000745      -0.00009375      -0.00004182 
Al       6.17974721       2.29771437       6.79523665       0.00000713      -0.00009391       0.00004145 
Al      -1.81230764       6.89314311       6.79523665       0.00092021       0.00274528       0.00183863 
Al       3.27557968       6.89314311       6.79523665      -0.00012157       0.00015578      -0.00003163 
Al       8.36346700       6.89314311       6.79523665       0.00033506       0.00001614       0.00016811 
