108
Lattice="15.26366196 0.0 0.0 6.551159357227072 13.786286211498993 0.0 -10.907410658616403 -6.893143105751308 8.154283983102717" Properties=species:S:1:pos:R:3:forces:R:3 pbc="T T T"
Ti       0.00000000       0.00000000       0.00000000       0.00981292      -0.00010889       0.00487234 
Ti       5.08788732       0.00000000       0.00000000       0.01031851      -0.00010703      -0.00517597 
Ti      10.17577464       0.00000000       0.00000000       0.00003576       0.00000213      -0.00000006 
Ti       2.18371979       4.59542874       0.00000000       0.00000318       0.00001731      -0.00013359 
Ti       7.27160711       4.59542874       0.00000000       0.00004170       0.00003322       0.00000043 
Ti      12.35949443       4.59542874       0.00000000       0.00004217      -0.00004064       0.00000989 
Ti       4.36743957       9.19085747       0.00000000       0.00004174       0.00003340      -0.00000017 
Ti       9.45532689       9.19085747       0.00000000       0.00000224       0.00001890       0.00013451 
Ti      14.54321421       9.19085747       0.00000000       0.00004278      -0.00004151      -0.00001049 
Ti      -3.63580355      -2.29771437       2.71809466       0.00008476       0.00005392      -0.00000579 
Ti       1.45208377      -2.29771437       2.71809466       0.00225511       0.00371027      -0.00238378 
Ti       6.53997109      -2.29771437       2.71809466       0.00066573      -0.00053074       0.00046892 
Ti      -1.45208377       2.29771437       2.71809466       0.00067937      -0.00053893      -0.00046969 
Ti       3.63580355       2.29771437       2.71809466       0.00225745       0.00377044       0.00241931 
Ti       8.72369087       2.29771437       2.71809466       0.00008594       0.00005498       0.00000568 
Ti       0.73163602       6.89314311       2.71809466       0.00000681      -0.00003904      -0.00003084 
Ti       5.81952334       6.89314311       2.71809466       0.00000812       0.00001069       0.00000000 
Ti      10.90741066       6.89314311       2.71809466       0.00000687      -0.00003924       0.00003090 
Ti      -7.27160711      -4.59542874       5.43618932      -0.00016927       0.00032569      -0.00030643 
Ti      -2.18371979      -4.59542874       5.43618932       0.00001853       0.00001193      -0.00001105 
Ti       2.90416753      -4.59542874       5.43618932       0.00006056      -0.00010000       0.00017016 
Ti      -5.08788732      -0.00000000       5.43618932       0.00000273       0.00000130      -0.00000001 
Ti      -0.00000000      -0.00000000       5.43618932       0.00035205      -0.00006093      -0.00052288 
Ti       5.08788732      -0.00000000       5.43618932       0.00034865      -0.00006004       0.00051479 
Ti      -2.90416753       4.59542874       5.43618932      -0.00016849       0.00032457       0.00030650 
Ti       2.18371979       4.59542874       5.43618932       0.00006095      -0.00010085      -0.00017140 
Ti       7.27160711       4.59542874       5.43618932       0.00001839       0.00001190       0.00001096 
Al       3.63580355       2.29771437       0.00000000       0.00092007       0.00243164      -0.00156680 
Al       8.72369087       2.29771437       0.00000000       0.00033815       0.00020283      -0.00001218 
Al      13.81157819       2.29771437       0.00000000      -0.00011627      -0.00001811       0.00010565 
Al       5.81952334       6.89314311       0.00000000      -0.00000093      -0.00000804      -0.00000002 
Al      10.90741066       6.89314311       0.00000000       0.00000723      -0.00002500      -0.00009931 
Al      15.99529798       6.89314311       0.00000000       0.00000735      -0.00002506       0.00010028 
Al       8.00324312      11.48857184       0.00000000       0.00091590       0.00239945       0.00154332 
Al      13.09113044      11.48857184       0.00000000      -0.00012180      -0.00000853      -0.00011097 
Al      18.17901776      11.48857184       0.00000000       0.00033657       0.00020173       0.00001208 
Al      -0.00000000       0.00000000       2.71809466       0.00641021       0.00007484      -0.00334931 
Al       5.08788732       0.00000000       2.71809466       0.00675389       0.00007987       0.00354626 
Al      10.17577464       0.00000000       2.71809466       0.00006588       0.00004249       0.00000014 
Al       2.18371978       4.59542874       2.71809466       0.00000450       0.00009589       0.00007390 
Al       7.27160710       4.59542874       2.71809466       0.00014675       0.00010698       0.00000907 
Al      12.35949442       4.59542874       2.71809466       0.00009470      -0.00013436       0.00004121 
Al       4.36743957       9.19085748       2.71809466       0.00014735       0.00010732      -0.00000918 
Al       9.45532689       9.19085748       2.71809466       0.00000319       0.00009573      -0.00007378 
Al      14.54321421       9.19085748       2.71809466       0.00009669      -0.00013733      -0.00004101 
Al      -3.63580356      -2.29771437       5.43618932       0.00003088       0.00001937       0.00000353 
Al       1.45208376      -2.29771437       5.43618932      -0.00011239       0.00009008      -0.00001165 
Al       6.53997108      -2.29771437       5.43618932       0.00005319      -0.00007892       0.00022857 
Al      -1.45208377       2.29771437       5.43618932       0.00005205      -0.00007684      -0.00022371 
Al       3.63580355       2.29771437       5.43618932      -0.00011238       0.00009453       0.00001346 
Al       8.72369087       2.29771437       5.43618932       0.00003129       0.00001946      -0.00000349 
Al       0.73163602       6.89314311       5.43618932       0.00001827      -0.00004144      -0.00000842 
Al       5.81952334       6.89314311       5.43618932      -0.00000254      -0.00000121       0.00000005 
Al      10.90741066       6.89314311       5.43618932       0.00001595      -0.00004122       0.00001969 
Al       2.55394366       0.00000000       1.35904733      -0.05124605       0.00793537       0.00008617 
Al       7.63183098       0.00000000       1.35904733       0.00021773       0.00006121       0.00007413 
Al      12.71971830       0.00000000       1.35904733       0.00022693       0.00005815      -0.00007825 
Al       4.72766345       4.59542874       1.35904733      -0.00008147       0.00020401      -0.00003221 
Al       9.81555077       4.59542874       1.35904733      -0.00000195      -0.00001158       0.00000000 
Al      14.90343809       4.59542874       1.35904733      -0.00023427      -0.00004254       0.00001001 
Al       6.91138323       9.19085747       1.35904733      -0.00008088       0.00020384       0.00003320 
Al      11.99927055       9.19085747       1.35904733      -0.00023748      -0.00004428      -0.00001114 
Al      17.08715787       9.19085747       1.35904733      -0.00000153      -0.00001155       0.00000000 
Al      -1.09185989      -2.29771437       4.07714199       0.00008510       0.00004720      -0.00012138 
Al       3.99602743      -2.29771437       4.07714199      -0.00030071      -0.00003163      -0.00022253 
Al       9.08391475      -2.29771437       4.07714199       0.00016259       0.00002111       0.00004381 
Al       1.09185989       2.29771437       4.07714199      -0.00030295      -0.00002661       0.00022602 
Al       6.17974721       2.29771437       4.07714199       0.00008267       0.00004548       0.00011921 
Al      11.26763453       2.29771437       4.07714199       0.00015935       0.00002140      -0.00004229 
Al       3.27557968       6.89314311       4.07714199       0.00008563       0.00005701      -0.00011417 
Al       8.36346700       6.89314311       4.07714199       0.00008514       0.00005733       0.00011342 
Al      13.45135432       6.89314311       4.07714199      -0.00019919      -0.00011396      -0.00000144 
Al      -4.72766345      -4.59542874       6.79523665       0.00008218       0.00017137      -0.00016173 
Al       0.36022387      -4.59542874       6.79523665       0.00016046      -0.00002739       0.00000138 
Al       5.44811119      -4.59542874       6.79523665      -0.00030598       0.00002667      -0.00027161 
Al      -2.54394366      -0.00000000       6.79523665       0.00008481       0.00000836      -0.00007187 
Al       2.54394366      -0.00000000       6.79523665      -0.00019919      -0.00008895       0.00000155 
Al       7.63183098      -0.00000000       6.79523665       0.00008596       0.00000834       0.00007318 
Al      -0.36022387       4.59542874       6.79523665      -0.00029766       0.00002802       0.00027239 
Al       4.72766345       4.59542874       6.79523665       0.00016147      -0.00002774      -0.00000219 
Al       9.81555077       4.59542874       6.79523665       0.00008558       0.00017893       0.00016584 
Al       1.09185989       2.29771437       1.35904733       0.00515428      -0.01034734      -0.00000821 
Al       6.17974721       2.29771437       1.35904733      -0.00000926       0.00005120       0.00007259 
Al      11.26763453       2.29771437       1.35904733       0.00028430      -0.00008665       0.00002340 
Al       3.27557968       6.89314311       1.35904733      -0.00001262       0.00005477      -0.00001314 
Al       8.36346700       6.89314311       1.35904733      -0.00001253       0.00005514       0.00001321 
Al      13.45135432       6.89314311       1.35904733      -0.00000533      -0.00002419       0.00000000 
Al       5.45929946      11.48857184       1.35904733      -0.00000349       0.00006056      -0.00007486 
Al      10.54718678      11.48857184       1.35904733       0.00521124      -0.01056740       0.00000345 
Al      15.63507410      11.48857184       1.35904733       0.00028914      -0.00008788      -0.00002463 
Al      -2.54394366       0.00000000       4.07714199       0.00014996       0.00008658      -0.00010766 
Al       2.54394366       0.00000000       4.07714199      -0.00145917       0.00006048      -0.00005075 
Al       7.63183098       0.00000000       4.07714199       0.00014799       0.00008904       0.00010755 
Al      -0.36022388       4.59542874       4.07714199      -0.00013851      -0.00024713      -0.00022370 
Al       4.72766344       4.59542874       4.07714199       0.00005339       0.00011288       0.00004067 
Al       9.81555076       4.59542874       4.07714199       0.00008434       0.00007316       0.00015815 
Al       1.82349591       9.19085748       4.07714199       0.00008480       0.00007352      -0.00015916 
Al       6.91138323       9.19085748       4.07714199       0.00005455       0.00011425      -0.00004186 
Al      11.99927055       9.19085748       4.07714199      -0.00013940      -0.00025005       0.00022569 
Al      -6.17974722      -2.29771437       6.79523665       0.00001151       0.00015312      -0.00002047 
Al      -1.09185990      -2.29771437       6.79523665       0.00007280       0.00007828      -0.00012091 
Al       3.99602742      -2.29771437       6.79523665      -0.00005272      -0.00028948       0.00014331 
Al      -3.99602743       2.29771437       6.79523665       0.00001199       0.00015293       0.00002121 
Al       1.09185989       2.29771437       6.79523665      -0.00005207      -0.00028996      -0.00014405 
Al       6.17974721       2.29771437       6.79523665       0.00007317       0.00007942       0.00012202 
Al      -1.81230764       6.89314311       6.79523665      -0.00147161       0.00006642       0.00005567 
Al       3.27557968       6.89314311       6.79523665       0.00024487       0.00002106      -0.00013956 
Al       8.36346700       6.89314311       6.79523665       0.00025307       0.00002073       0.00014294 
