 +-------------------------------------------------+
 |                                                 |
 |      CCC   AA    SSS  TTTTT  EEEEE  PPPP        |
 |     C     A  A  S       T    E      P   P       |
 |     C     AAAA   SS     T    EEE    PPPP        |
 |     C     A  A     S    T    E      P           |
 |      CCC  A  A  SSS     T    EEEEE  P           |
 |                                                 |
 +-------------------------------------------------+
 |                                                 |
 | Welcome to Academic Release CASTEP version 17.21|          
 | Ab Initio Total Energy Program                  |
 |                                                 |
 | Authors:                                        |
 | M. Segall, M. Probert, C. Pickard, P. Hasnip,   |
 | S. Clark, K. Refson, J. R. Yates, M. Payne      |
 |                                                 |
 | Contributors:                                   |
 | P. Lindan, P. Haynes, J. White, V. Milman,      |
 | N. Govind, M. Gibson, P. Tulip, V. Cocula,      |
 | B. Montanari, D. Quigley, M. Glover,            |
 | L. Bernasconi, A. Perlov, M. Plummer,           |
 | E. McNellis, J. Meyer, J. Gale, D. Jochym       |
 | J. Aarons, B. Walker, R. Gillen, D. Jones       |
 | T. Green, I. J. Bush, C. J. Armstrong,          |
 | E. J. Higgins, E. L. Brown, M. S. McFly,        |
 | J. Wilkins, B-C. Shih, P. J. P. Byrne           |
 |                                                 |
 | Copyright (c) 2000 - 2017                       |
 |                                                 |
 |     Distributed under the terms of an           |
 |     Agreement between the United Kingdom        |
 |     Car-Parrinello (UKCP) Consortium,           |
 |     Daresbury Laboratory and Accelrys, Inc.     |
 |                                                 |
 | Please cite                                     |
 |                                                 |
 |     "First principles methods using CASTEP"     |
 |                                                 |
 |         Zeitschrift fuer Kristallographie       |
 |           220(5-6) pp. 567-570 (2005)           |
 |                                                 |
 | S. J. Clark, M. D. Segall, C. J. Pickard,       |
 | P. J. Hasnip, M. J. Probert, K. Refson,         |
 | M. C. Payne                                     |
 |                                                 |
 |       in all publications arising from          |
 |              your use of CASTEP                 |
 |                                                 |
 +-------------------------------------------------+


 Compiled for linux_x86_64_gfortran6.0-XT on Fri, 21 Jul 2017 10:20:05 +0100
 from code version 056e886bd5a1+ Castep172_branch Mon, 15 May 2017 14:45:35 +0100
 Compiler: GNU Fortran 6.3.0; Optimisation: fast
 MATHLIBS: Intel MKL(2017.0.0) (LAPACK version 3.6.0)
 FFT Lib : fftw3 version commercial-fftw-3.3.4-sse2-avx
 Fundamental constants values: CODATA 2010

 Run started: Thu, 31 Oct 2019 13:10:04 +0000

 Atomic calculation performed for Al: 1s2 2s2 2p6 3s2 3p1

 Converged in 55 iterations to an ae energy of -6578.725 eV

   ============================================================                
   | Pseudopotential Report - Date of generation 31-10-2019   |                
   ------------------------------------------------------------                
   | Element: Al Ionic charge:  3.00 Level of theory: LDA     |                
   | Atomic Solver: Koelling-Harmon                           |                
   |                                                          |                
   |               Reference Electronic Structure             |                
   |         Orbital         Occupation         Energy        |                
   |            3s              2.000           -0.288        |                
   |            3p              1.000           -0.102        |                
   |                                                          |                
   |                 Pseudopotential Definition               |                
   |        Beta     l      e      Rc     scheme   norm       |                
   |          1      0   -0.288   2.192     qc      0         |                
   |          2      0    0.250   2.192     qc      0         |                
   |          3      1   -0.102   2.192     qc      0         |                
   |          4      1    0.250   2.192     qc      0         |                
   |          5      2    0.000   2.000     qc      0         |                
   |          6      2    0.250   2.000     qc      0         |                
   |         loc     3    0.000   2.192     pn      0         |                
   |                                                          |                
   | Augmentation charge Rinner = 1.398                       |                
   | Partial core correction Rc = 1.398                       |                
   ------------------------------------------------------------                
   | "3|2.2|2.2|1.4|4|5|5|30:31:32U2U2"                       |                
   ------------------------------------------------------------                
   |      Author: Chris J. Pickard, Cambridge University      |                
   ============================================================                

 Atomic calculation performed for Ti: 1s2 2s2 2p6 3s2 3p6 3d2 4s2

 Converged in 78 iterations to an ae energy of -23176.516 eV

   ============================================================                
   | Pseudopotential Report - Date of generation 31-10-2019   |                
   ------------------------------------------------------------                
   | Element: Ti Ionic charge: 12.00 Level of theory: LDA     |                
   | Atomic Solver: Koelling-Harmon                           |                
   |                                                          |                
   |               Reference Electronic Structure             |                
   |         Orbital         Occupation         Energy        |                
   |            3s              2.000           -2.288        |                
   |            3p              6.000           -1.425        |                
   |            4s              2.000           -0.169        |                
   |            3d              2.000           -0.164        |                
   |                                                          |                
   |                 Pseudopotential Definition               |                
   |        Beta     l      e      Rc     scheme   norm       |                
   |          1      0   -2.288   1.793     qc      0         |                
   |          2      0   -0.169   1.793     qc      0         |                
   |          3      0    0.250   1.793     qc      0         |                
   |          4      1   -1.425   1.793     qc      0         |                
   |          5      1    0.250   1.793     qc      0         |                
   |          6      2   -0.164   1.793     qc      0         |                
   |          7      2    0.250   1.793     qc      0         |                
   |         loc     3    0.000   1.793     pn      0         |                
   |                                                          |                
   | Augmentation charge Rinner = 1.263                       |                
   | Partial core correction Rc = 1.263                       |                
   ------------------------------------------------------------                
   | "3|1.8|9|10|11|30U:40:31:32(qc=5.5)"                     |                
   ------------------------------------------------------------                
   |      Author: Chris J. Pickard, Cambridge University      |                
   ============================================================                

 Pseudo atomic calculation performed for Al 3s2 3p1

 Converged in 15 iterations to a total energy of -105.5952 eV


 Pseudo atomic calculation performed for Ti 3s2 3p6 3d2 4s2

 Converged in 31 iterations to a total energy of -1585.9998 eV

 Calculation parallelised over 42 processes.
 Data is distributed by G-vector(3-way) and k-point(14-way)

 ************************************ Title ************************************
 

 ***************************** General Parameters ******************************
  
 output verbosity                               : normal  (1)
 write checkpoint data to                       : castep.check
 type of calculation                            : single point energy
 stress calculation                             : on
 density difference calculation                 : off
 electron localisation func (ELF) calculation   : off
 Hirshfeld analysis                             : off
 unlimited duration calculation
 timing information                             : on
 memory usage estimate                          : on
 write final potential to formatted file        : off
 write final density to formatted file          : off
 write BibTeX reference list                    : on
 write OTFG pseudopotential files               : on
 write electrostatic potential file             : on
 write bands file                               : on
 checkpoint writing                             : off
  
 output         length unit                     : A
 output           mass unit                     : amu
 output           time unit                     : ps
 output         charge unit                     : e
 output           spin unit                     : hbar/2
 output         energy unit                     : eV
 output          force unit                     : eV/A
 output       velocity unit                     : A/ps
 output       pressure unit                     : GPa
 output     inv_length unit                     : 1/A
 output      frequency unit                     : cm-1
 output force constant unit                     : eV/A**2
 output         volume unit                     : A**3
 output   IR intensity unit                     : (D/A)**2/amu
 output         dipole unit                     : D
 output         efield unit                     : eV/A/e
 output        entropy unit                     : J/mol/K
  
 wavefunctions paging                           : none
 random number generator seed                   : randomised (131004367)
 data distribution                              : optimal for this architecture
 optimization strategy                          : balance speed and memory

 *********************** Exchange-Correlation Parameters ***********************
  
 using functional                               : Local Density Approximation
 relativistic treatment                         : Koelling-Harmon
 DFT+D: Semi-empirical dispersion correction    : off

 ************************* Pseudopotential Parameters **************************
  
 pseudopotential representation                 : reciprocal space
 <beta|phi> representation                      : reciprocal space
 spin-orbit coupling                            : off

 **************************** Basis Set Parameters *****************************
  
 plane wave basis set cut-off                   :   600.0000   eV
 size of standard grid                          :     1.7500
 size of   fine   gmax                          :    21.9610   1/A
 finite basis set correction                    : automatic
 number of sample energies                      :          3
           sample  spacing                      :     5.0000   eV

 **************************** Electronic Parameters ****************************
  
 number of  electrons                           :  624.0    
 net charge of system                           :  0.000    
 treating system as non-spin-polarized
 number of bands                                :        374

 ********************* Electronic Minimization Parameters **********************
  
 Method: Treating system as metallic with density mixing treatment of electrons,
         and number of  SD  steps               :          1
         and number of  CG  steps               :          4
  
 total energy / atom convergence tol.           : 0.1000E-04   eV
 eigen-energy convergence tolerance             : 0.1000E-05   eV
 max force / atom convergence tol.              : ignored
 convergence tolerance window                   :          3   cycles
 max. number of SCF cycles                      :        250
 number of fixed-spin iterations                :         10
 smearing scheme                                : Gaussian
 smearing width                                 : 0.1000       eV
 Fermi energy convergence tolerance             : 0.2721E-13   eV
 periodic dipole correction                     : NONE

 ************************** Density Mixing Parameters **************************
  
 density-mixing scheme                          : Pulay
 max. length of mixing history                  :         20
 charge density mixing amplitude                : 0.8000    
 cut-off energy for mixing                      :  600.0       eV

 *********************** Population Analysis Parameters ************************
  
 Population analysis with cutoff                :  3.000       A

 *******************************************************************************
  

                           -------------------------------
                                      Unit Cell
                           -------------------------------
        Real Lattice(A)                      Reciprocal Lattice(1/A)
  11.2210070   0.0003580   0.0000000        0.5599381   0.3232570   0.0000000
  -5.6101940   9.7178460   0.0000000       -0.0000206   0.6465496   0.0000000
   0.0000000   0.0000000   9.0896980        0.0000000   0.0000000   0.6912425

                       Lattice parameters(A)       Cell Angles
                    a =   11.221007          alpha =   90.000000
                    b =   11.220999          beta  =   90.000000
                    c =    9.089698          gamma =  119.996372

                       Current cell volume =  991.195448       A**3
                                   density =    2.753565   AMU/A**3
                                           =    4.572401     g/cm^3

                           -------------------------------
                                     Cell Contents
                           -------------------------------
                         Total number of ions in cell =   64
                      Total number of species in cell =    2
                        Max number of any one species =   48

            xxxxxxxxxxxxxxxxxxxxxxxxxxxxxxxxxxxxxxxxxxxxxxxxxxxxxxxxxxxx
            x  Element    Atom        Fractional coordinates of atoms  x
            x            Number           u          v          w      x
            x----------------------------------------------------------x
            x  Al           1         0.166686   0.333315   0.125002   x 
            x  Al           2         0.666686   0.333315   0.125002   x 
            x  Al           3         0.166686   0.833315   0.125002   x 
            x  Al           4         0.666686   0.833316   0.125002   x 
            x  Al           5         0.166686   0.333315   0.625002   x 
            x  Al           6         0.666686   0.333315   0.625001   x 
            x  Al           7         0.166686   0.833315   0.625002   x 
            x  Al           8         0.666686   0.833315   0.625001   x 
            x  Al           9         0.333314   0.166687   0.375001   x 
            x  Al          10         0.833314   0.166687   0.375001   x 
            x  Al          11         0.333314   0.666687   0.375001   x 
            x  Al          12         0.833314   0.666687   0.375001   x 
            x  Al          13         0.333314   0.166687   0.875001   x 
            x  Al          14         0.833313   0.166687   0.875001   x 
            x  Al          15         0.333314   0.666687   0.875001   x 
            x  Al          16         0.833314   0.666687   0.875001   x 
            x  Ti           1         0.415860   0.330376   0.125694   x 
            x  Ti           2         0.915168   0.330376   0.125002   x 
            x  Ti           3         0.415168   0.830376   0.125002   x 
            x  Ti           4         0.915168   0.830376   0.125002   x 
            x  Ti           5         0.415168   0.330376   0.625001   x 
            x  Ti           6         0.915168   0.330376   0.625001   x 
            x  Ti           7         0.415168   0.830376   0.625001   x 
            x  Ti           8         0.915168   0.830376   0.625001   x 
            x  Ti           9         0.084812   0.415187   0.375001   x 
            x  Ti          10         0.584812   0.415187   0.375001   x 
            x  Ti          11         0.084812   0.915187   0.375001   x 
            x  Ti          12         0.584812   0.915187   0.375001   x 
            x  Ti          13         0.084812   0.415187   0.875001   x 
            x  Ti          14         0.584812   0.415187   0.875001   x 
            x  Ti          15         0.084812   0.915187   0.875001   x 
            x  Ti          16         0.584812   0.915187   0.875001   x 
            x  Ti          17         0.330372   0.415163   0.375001   x 
            x  Ti          18         0.830373   0.415163   0.375001   x 
            x  Ti          19         0.330373   0.915163   0.375001   x 
            x  Ti          20         0.830373   0.915163   0.375001   x 
            x  Ti          21         0.330372   0.415163   0.875001   x 
            x  Ti          22         0.830373   0.415163   0.875001   x 
            x  Ti          23         0.330373   0.915163   0.875001   x 
            x  Ti          24         0.830373   0.915163   0.875001   x 
            x  Ti          25         0.169627   0.084838   0.125002   x 
            x  Ti          26         0.669627   0.084838   0.125002   x 
            x  Ti          27         0.169627   0.584838   0.125002   x 
            x  Ti          28         0.669627   0.584838   0.125002   x 
            x  Ti          29         0.169627   0.084837   0.625002   x 
            x  Ti          30         0.669627   0.084837   0.625001   x 
            x  Ti          31         0.169627   0.584837   0.625002   x 
            x  Ti          32         0.669627   0.584838   0.625001   x 
            x  Ti          33         0.415190   0.084815   0.125002   x 
            x  Ti          34         0.915190   0.084815   0.125002   x 
            x  Ti          35         0.415190   0.584815   0.125002   x 
            x  Ti          36         0.915190   0.584815   0.125002   x 
            x  Ti          37         0.415190   0.084815   0.625002   x 
            x  Ti          38         0.915190   0.084815   0.625001   x 
            x  Ti          39         0.415190   0.584815   0.625001   x 
            x  Ti          40         0.915190   0.584815   0.625001   x 
            x  Ti          41         0.084836   0.169629   0.375001   x 
            x  Ti          42         0.584837   0.169629   0.375001   x 
            x  Ti          43         0.084837   0.669629   0.375001   x 
            x  Ti          44         0.584837   0.669629   0.375001   x 
            x  Ti          45         0.084836   0.169629   0.875001   x 
            x  Ti          46         0.584837   0.169629   0.875001   x 
            x  Ti          47         0.084837   0.669629   0.875001   x 
            x  Ti          48         0.584837   0.669629   0.875001   x 
            xxxxxxxxxxxxxxxxxxxxxxxxxxxxxxxxxxxxxxxxxxxxxxxxxxxxxxxxxxxx


                         No user defined ionic velocities

                           -------------------------------
                                   Details of Species
                           -------------------------------

                               Mass of species in AMU
                                    Al   26.9815400
                                    Ti   47.8670000

                          Electric Quadrupole Moment (Barn)
                                    Al    0.1466000 Isotope 27
                                    Ti    0.3020000 Isotope 47

                          Files used for pseudopotentials:
                                    Al 3|2.2|2.2|1.4|4|5|5|30:31:32U2U2
                                    Ti 3|1.8|9|10|11|30U:40:31:32(qc=5.5)

                           -------------------------------
                              k-Points For BZ Sampling
                           -------------------------------
                       MP grid size for SCF calculation is  3  3  3
                            with an offset of   0.000  0.000  0.000
                       Number of kpoints used =            14

                           -------------------------------
                               Symmetry and Constraints
                           -------------------------------

                      Maximum deviation from symmetry =  0.00000         ANG

                      Number of symmetry operations   =           1
                      Number of ionic constraints     =           3
                      Point group of crystal =     1: C1, 1, 1
                      Space group of crystal =     1: P1, P 1

             Set iprint > 1 for details on symmetry rotations/translations

                         Centre of mass is constrained
             Set iprint > 1 for details of linear ionic constraints

                         Number of cell constraints= 0
                         Cell constraints are:  1 2 3 4 5 6

                         External pressure/stress (GPa)
                          0.00000   0.00000   0.00000
                                    0.00000   0.00000
                                              0.00000
  
+---------------- MEMORY AND SCRATCH DISK ESTIMATES PER PROCESS --------------+
|                                                     Memory          Disk    |
| Baseline code, static data and system overhead      173.0 MB         0.0 MB |
| BLAS internal memory storage                          0.0 MB         0.0 MB |
| Model and support data                              336.9 MB       382.1 MB |
| Electronic energy minimisation requirements         327.0 MB         0.0 MB |
| Force calculation requirements                       20.3 MB         0.0 MB |
| Stress calculation requirements                      22.4 MB         0.0 MB |
|                                               ----------------------------- |
| Approx. total storage required per process          837.0 MB       382.1 MB |
|                                                                             |
| Requirements will fluctuate during execution and may exceed these estimates |
+-----------------------------------------------------------------------------+
Calculating finite basis set correction with  3 cut-off energies.
Calculating total energy with cut-off of  590.000 eV.
------------------------------------------------------------------------ <-- SCF
SCF loop      Energy           Fermi           Energy gain       Timer   <-- SCF
                               energy          per atom          (sec)   <-- SCF
------------------------------------------------------------------------ <-- SCF
Initial  -6.89685481E+004  0.00000000E+000                        29.29  <-- SCF
      1  -7.61832174E+004  1.08121595E+001   1.12729208E+002     156.50  <-- SCF
      2  -7.81541562E+004  9.28824294E+000   3.07959184E+001     245.15  <-- SCF
      3  -7.82721846E+004  8.74551799E+000   1.84419474E+000     347.80  <-- SCF
      4  -7.82737834E+004  8.14006479E+000   2.49805632E-002     447.00  <-- SCF
      5  -7.82710201E+004  8.46224891E+000  -4.31760111E-002     569.19  <-- SCF
      6  -7.82718175E+004  8.44126040E+000   1.24586451E-002     702.22  <-- SCF
      7  -7.82709966E+004  8.41669495E+000  -1.28259420E-002     801.69  <-- SCF
      8  -7.82710199E+004  8.41476302E+000   3.64441027E-004     906.41  <-- SCF
      9  -7.82710056E+004  8.41232922E+000  -2.23351273E-004    1000.51  <-- SCF
     10  -7.82710052E+004  8.41237453E+000  -7.41613481E-006    1088.82  <-- SCF
     11  -7.82710048E+004  8.41276174E+000  -5.48718092E-006    1157.46  <-- SCF
     12  -7.82710048E+004  8.41282107E+000  -2.83536131E-007    1223.67  <-- SCF
------------------------------------------------------------------------ <-- SCF
 
Final energy, E             =  -78270.78850695     eV
Final free energy (E-TS)    =  -78271.00478775     eV
(energies not corrected for finite basis set)
 
NB est. 0K energy (E-0.5TS)      =  -78270.89664735     eV
 
Calculating total energy with cut-off of  595.000 eV.
------------------------------------------------------------------------ <-- SCF
SCF loop      Energy           Fermi           Energy gain       Timer   <-- SCF
                               energy          per atom          (sec)   <-- SCF
------------------------------------------------------------------------ <-- SCF
Initial  -7.82707883E+004  0.00000000E+000                      1244.86  <-- SCF
      1  -7.82710099E+004  8.41303725E+000   3.46263495E-003    1351.63  <-- SCF
      2  -7.82710100E+004  8.41303684E+000   9.17669973E-007    1418.16  <-- SCF
      3  -7.82711215E+004  8.41406138E+000   1.74236168E-003    1518.70  <-- SCF
      4  -7.82710043E+004  8.41285757E+000  -1.83163863E-003    1619.84  <-- SCF
      5  -7.82710057E+004  8.41281279E+000   2.29003911E-005    1710.05  <-- SCF
      6  -7.82710056E+004  8.41279455E+000  -2.33033053E-006    1778.60  <-- SCF
      7  -7.82710056E+004  8.41280043E+000  -1.29101900E-007    1843.59  <-- SCF
------------------------------------------------------------------------ <-- SCF
 
Final energy, E             =  -78270.78930440     eV
Final free energy (E-TS)    =  -78271.00557874     eV
(energies not corrected for finite basis set)
 
NB est. 0K energy (E-0.5TS)      =  -78270.89744157     eV
 
Calculating total energy with cut-off of  600.000 eV.
------------------------------------------------------------------------ <-- SCF
SCF loop      Energy           Fermi           Energy gain       Timer   <-- SCF
                               energy          per atom          (sec)   <-- SCF
------------------------------------------------------------------------ <-- SCF
Initial  -7.82707891E+004  0.00000000E+000                      1864.77  <-- SCF
      1  -7.82710106E+004  8.41291105E+000   3.46057431E-003    1972.76  <-- SCF
      2  -7.82710106E+004  8.41291061E+000   8.91478596E-007    2037.88  <-- SCF
      3  -7.82711131E+004  8.41417411E+000   1.60052410E-003    2139.31  <-- SCF
      4  -7.82710050E+004  8.41294294E+000  -1.68843045E-003    2240.37  <-- SCF
      5  -7.82710064E+004  8.41287937E+000   2.14075249E-005    2329.92  <-- SCF
      6  -7.82710063E+004  8.41280989E+000  -8.16395178E-007    2398.16  <-- SCF
      7  -7.82710063E+004  8.41280728E+000  -9.83146289E-008    2462.18  <-- SCF
------------------------------------------------------------------------ <-- SCF
 
Final energy, E             =  -78270.79004759     eV
Final free energy (E-TS)    =  -78271.00632547     eV
(energies not corrected for finite basis set)
 
NB est. 0K energy (E-0.5TS)      =  -78270.89818653     eV
 
 For future reference: finite basis dEtot/dlog(Ecut) =      -0.090263eV
 Total energy corrected for finite basis set =  -78271.006314 eV

 ******************* Unconstrained Forces *******************
 *                                                          *
 *               Cartesian components (eV/A)                *
 * -------------------------------------------------------- *
 *                         x            y            z      *
 *                                                          *
 * Al              1      0.00957      0.00036      0.00102 *
 * Al              2      0.00962      0.00435      0.00136 *
 * Al              3     -0.00397      0.00250      0.00085 *
 * Al              4     -0.00507      0.00302     -0.00025 *
 * Al              5     -0.00316      0.00283      0.00051 *
 * Al              6     -0.00368      0.00225      0.00017 *
 * Al              7     -0.00240      0.00230     -0.00034 *
 * Al              8     -0.00529      0.00292     -0.00034 *
 * Al              9      0.00496     -0.00788      0.00755 *
 * Al             10      0.00344     -0.00264     -0.00021 *
 * Al             11      0.00522     -0.00180      0.00033 *
 * Al             12      0.00469     -0.00368      0.00019 *
 * Al             13      0.00475      0.00518      0.00719 *
 * Al             14      0.00357     -0.00280     -0.00031 *
 * Al             15      0.00603     -0.00292     -0.00037 *
 * Al             16      0.00396     -0.00446     -0.00023 *
 * Ti              1     -0.06040     -0.00807     -0.05430 *
 * Ti              2     -0.00083     -0.01068      0.00332 *
 * Ti              3      0.00490     -0.00796      0.00115 *
 * Ti              4      0.00056     -0.01096      0.00109 *
 * Ti              5      0.00232     -0.00712      0.01153 *
 * Ti              6      0.00132     -0.01047     -0.00036 *
 * Ti              7      0.00523     -0.00832     -0.00020 *
 * Ti              8      0.00030     -0.01142     -0.00011 *
 * Ti              9      0.00748     -0.00622     -0.00117 *
 * Ti             10      0.01946     -0.00295      0.01213 *
 * Ti             11      0.00984     -0.00430     -0.00146 *
 * Ti             12      0.00599     -0.00269      0.00013 *
 * Ti             13      0.01177     -0.00496      0.00113 *
 * Ti             14      0.00772     -0.00755     -0.00201 *
 * Ti             15      0.01103     -0.00230      0.00143 *
 * Ti             16      0.00697     -0.00384     -0.00116 *
 * Ti             17     -0.00791      0.00058     -0.00044 *
 * Ti             18     -0.00903     -0.00478      0.00202 *
 * Ti             19     -0.00387     -0.00018      0.00219 *
 * Ti             20     -0.01388      0.00090      0.00002 *
 * Ti             21      0.00198     -0.00466      0.01005 *
 * Ti             22     -0.01200     -0.00242     -0.00197 *
 * Ti             23     -0.00567      0.00119     -0.00218 *
 * Ti             24     -0.01395      0.00068     -0.00107 *
 * Ti             25      0.01707      0.01104      0.00555 *
 * Ti             26      0.00907      0.00080      0.00131 *
 * Ti             27      0.01277      0.00024      0.00041 *
 * Ti             28      0.01263     -0.00316      0.00135 *
 * Ti             29      0.01095      0.00639     -0.00129 *
 * Ti             30      0.00830      0.00089     -0.00118 *
 * Ti             31      0.01314      0.00161     -0.00028 *
 * Ti             32      0.00934     -0.00258     -0.00132 *
 * Ti             33      0.00134      0.00149      0.00638 *
 * Ti             34     -0.00992      0.00723      0.00042 *
 * Ti             35     -0.00423      0.00555      0.00079 *
 * Ti             36     -0.00831      0.00203      0.00061 *
 * Ti             37     -0.00469      0.00648     -0.00216 *
 * Ti             38     -0.01065      0.00636     -0.00037 *
 * Ti             39     -0.00698      0.00508     -0.00069 *
 * Ti             40     -0.00874      0.00142     -0.00047 *
 * Ti             41     -0.00618      0.00925      0.00077 *
 * Ti             42     -0.00602      0.01068     -0.00278 *
 * Ti             43     -0.00327      0.00678      0.00089 *
 * Ti             44     -0.00591      0.00741      0.00008 *
 * Ti             45     -0.00879      0.00937     -0.00320 *
 * Ti             46     -0.00320      0.01096      0.00038 *
 * Ti             47     -0.00325      0.00597     -0.00037 *
 * Ti             48     -0.00606      0.00767     -0.00169 *
 *                                                          *
 ************************************************************

 ******************** Constrained Forces ********************
 *                                                          *
 *               Cartesian components (eV/A)                *
 * -------------------------------------------------------- *
 *                         x            y            z      *
 *                                                          *
 * Al              1      0.00957      0.00036      0.00102 *
 * Al              2      0.00962      0.00435      0.00136 *
 * Al              3     -0.00397      0.00250      0.00085 *
 * Al              4     -0.00507      0.00302     -0.00025 *
 * Al              5     -0.00316      0.00283      0.00051 *
 * Al              6     -0.00368      0.00225      0.00017 *
 * Al              7     -0.00240      0.00230     -0.00034 *
 * Al              8     -0.00529      0.00292     -0.00034 *
 * Al              9      0.00496     -0.00788      0.00755 *
 * Al             10      0.00344     -0.00264     -0.00021 *
 * Al             11      0.00522     -0.00180      0.00033 *
 * Al             12      0.00469     -0.00368      0.00019 *
 * Al             13      0.00475      0.00518      0.00719 *
 * Al             14      0.00357     -0.00280     -0.00031 *
 * Al             15      0.00603     -0.00292     -0.00037 *
 * Al             16      0.00396     -0.00446     -0.00023 *
 * Ti              1     -0.06040     -0.00807     -0.05430 *
 * Ti              2     -0.00083     -0.01068      0.00332 *
 * Ti              3      0.00490     -0.00796      0.00115 *
 * Ti              4      0.00056     -0.01096      0.00109 *
 * Ti              5      0.00232     -0.00712      0.01153 *
 * Ti              6      0.00132     -0.01047     -0.00036 *
 * Ti              7      0.00523     -0.00832     -0.00020 *
 * Ti              8      0.00030     -0.01142     -0.00011 *
 * Ti              9      0.00748     -0.00622     -0.00117 *
 * Ti             10      0.01946     -0.00295      0.01213 *
 * Ti             11      0.00984     -0.00430     -0.00146 *
 * Ti             12      0.00599     -0.00269      0.00013 *
 * Ti             13      0.01177     -0.00496      0.00113 *
 * Ti             14      0.00772     -0.00755     -0.00201 *
 * Ti             15      0.01103     -0.00230      0.00143 *
 * Ti             16      0.00697     -0.00384     -0.00116 *
 * Ti             17     -0.00791      0.00058     -0.00044 *
 * Ti             18     -0.00903     -0.00478      0.00202 *
 * Ti             19     -0.00387     -0.00018      0.00219 *
 * Ti             20     -0.01388      0.00090      0.00002 *
 * Ti             21      0.00198     -0.00466      0.01005 *
 * Ti             22     -0.01200     -0.00242     -0.00197 *
 * Ti             23     -0.00567      0.00119     -0.00218 *
 * Ti             24     -0.01395      0.00068     -0.00107 *
 * Ti             25      0.01707      0.01104      0.00555 *
 * Ti             26      0.00907      0.00080      0.00131 *
 * Ti             27      0.01277      0.00024      0.00041 *
 * Ti             28      0.01263     -0.00316      0.00135 *
 * Ti             29      0.01095      0.00639     -0.00129 *
 * Ti             30      0.00830      0.00089     -0.00118 *
 * Ti             31      0.01314      0.00161     -0.00028 *
 * Ti             32      0.00934     -0.00258     -0.00132 *
 * Ti             33      0.00134      0.00149      0.00638 *
 * Ti             34     -0.00992      0.00723      0.00042 *
 * Ti             35     -0.00423      0.00555      0.00079 *
 * Ti             36     -0.00831      0.00203      0.00061 *
 * Ti             37     -0.00469      0.00648     -0.00216 *
 * Ti             38     -0.01065      0.00636     -0.00037 *
 * Ti             39     -0.00698      0.00508     -0.00069 *
 * Ti             40     -0.00874      0.00142     -0.00047 *
 * Ti             41     -0.00618      0.00925      0.00077 *
 * Ti             42     -0.00602      0.01068     -0.00278 *
 * Ti             43     -0.00327      0.00678      0.00089 *
 * Ti             44     -0.00591      0.00741      0.00008 *
 * Ti             45     -0.00879      0.00937     -0.00320 *
 * Ti             46     -0.00320      0.01096      0.00038 *
 * Ti             47     -0.00325      0.00597     -0.00037 *
 * Ti             48     -0.00606      0.00767     -0.00169 *
 *                                                          *
 ************************************************************

 ***************** Stress Tensor *****************
 *                                               *
 *          Cartesian components (GPa)           *
 * --------------------------------------------- *
 *             x             y             z     *
 *                                               *
 *  x     -0.654331      0.004355     -0.000021  *
 *  y      0.004355     -0.646517      0.004844  *
 *  z     -0.000021      0.004844     -1.332427  *
 *                                               *
 *  Pressure:    0.8778                          *
 *                                               *
 *************************************************

 Pseudo atomic calculation performed for Al 3s2 3p1

 Converged in 15 iterations to a total energy of -105.5952 eV


 Pseudo atomic calculation performed for Ti 3s2 3p6 3d2 4s2

 Converged in 31 iterations to a total energy of -1585.9998 eV

Charge spilling parameter for spin component 1 = 0.13%

     Atomic Populations (Mulliken)
     -----------------------------
Species          Ion     s      p      d      f     Total  Charge (e)
=====================================================================
  Al              1     0.94   2.11   0.00   0.00   3.05    -0.05
  Al              2     0.93   2.11   0.00   0.00   3.05    -0.05
  Al              3     0.94   2.11   0.00   0.00   3.05    -0.05
  Al              4     0.94   2.11   0.00   0.00   3.05    -0.05
  Al              5     0.94   2.11   0.00   0.00   3.05    -0.05
  Al              6     0.94   2.11   0.00   0.00   3.05    -0.05
  Al              7     0.94   2.11   0.00   0.00   3.05    -0.05
  Al              8     0.94   2.11   0.00   0.00   3.05    -0.05
  Al              9     0.94   2.11   0.00   0.00   3.05    -0.05
  Al             10     0.94   2.11   0.00   0.00   3.05    -0.05
  Al             11     0.94   2.11   0.00   0.00   3.05    -0.05
  Al             12     0.94   2.11   0.00   0.00   3.05    -0.05
  Al             13     0.94   2.11   0.00   0.00   3.05    -0.05
  Al             14     0.94   2.11   0.00   0.00   3.05    -0.05
  Al             15     0.94   2.11   0.00   0.00   3.05    -0.05
  Al             16     0.94   2.11   0.00   0.00   3.05    -0.05
  Ti              1     2.32   6.84   2.83   0.00  11.98     0.02
  Ti              2     2.32   6.84   2.83   0.00  11.98     0.02
  Ti              3     2.32   6.84   2.83   0.00  11.98     0.02
  Ti              4     2.32   6.84   2.83   0.00  11.99     0.01
  Ti              5     2.32   6.84   2.83   0.00  11.98     0.02
  Ti              6     2.32   6.84   2.83   0.00  11.98     0.02
  Ti              7     2.32   6.84   2.83   0.00  11.98     0.02
  Ti              8     2.32   6.84   2.83   0.00  11.99     0.01
  Ti              9     2.32   6.84   2.83   0.00  11.98     0.02
  Ti             10     2.32   6.84   2.83   0.00  11.98     0.02
  Ti             11     2.32   6.84   2.83   0.00  11.99     0.01
  Ti             12     2.32   6.84   2.83   0.00  11.98     0.02
  Ti             13     2.32   6.84   2.83   0.00  11.98     0.02
  Ti             14     2.32   6.84   2.83   0.00  11.98     0.02
  Ti             15     2.32   6.84   2.83   0.00  11.99     0.01
  Ti             16     2.32   6.84   2.83   0.00  11.98     0.02
  Ti             17     2.32   6.84   2.83   0.00  11.98     0.02
  Ti             18     2.32   6.84   2.83   0.00  11.98     0.02
  Ti             19     2.32   6.84   2.83   0.00  11.98     0.02
  Ti             20     2.32   6.84   2.83   0.00  11.98     0.02
  Ti             21     2.32   6.84   2.83   0.00  11.98     0.02
  Ti             22     2.32   6.84   2.83   0.00  11.98     0.02
  Ti             23     2.32   6.84   2.83   0.00  11.99     0.01
  Ti             24     2.32   6.84   2.83   0.00  11.99     0.01
  Ti             25     2.32   6.84   2.83   0.00  11.99     0.01
  Ti             26     2.32   6.84   2.83   0.00  11.98     0.02
  Ti             27     2.32   6.84   2.83   0.00  11.98     0.02
  Ti             28     2.32   6.84   2.83   0.00  11.98     0.02
  Ti             29     2.32   6.84   2.83   0.00  11.99     0.01
  Ti             30     2.32   6.84   2.83   0.00  11.98     0.02
  Ti             31     2.32   6.84   2.83   0.00  11.98     0.02
  Ti             32     2.32   6.84   2.83   0.00  11.98     0.02
  Ti             33     2.32   6.84   2.83   0.00  11.98     0.02
  Ti             34     2.32   6.84   2.83   0.00  11.98     0.02
  Ti             35     2.32   6.84   2.83   0.00  11.98     0.02
  Ti             36     2.32   6.84   2.83   0.00  11.98     0.02
  Ti             37     2.32   6.84   2.83   0.00  11.98     0.02
  Ti             38     2.32   6.84   2.83   0.00  11.98     0.02
  Ti             39     2.32   6.84   2.83   0.00  11.98     0.02
  Ti             40     2.32   6.84   2.83   0.00  11.98     0.02
  Ti             41     2.32   6.84   2.83   0.00  11.98     0.02
  Ti             42     2.32   6.84   2.83   0.00  11.98     0.02
  Ti             43     2.32   6.84   2.83   0.00  11.99     0.01
  Ti             44     2.32   6.84   2.83   0.00  11.99     0.01
  Ti             45     2.32   6.84   2.83   0.00  11.98     0.02
  Ti             46     2.32   6.84   2.83   0.00  11.98     0.02
  Ti             47     2.32   6.84   2.83   0.00  11.99     0.01
  Ti             48     2.32   6.84   2.83   0.00  11.98     0.02
=====================================================================

                 Bond                   Population      Length (A)
======================================================================
             Ti 1  -- Ti 33                 -0.02        2.75170
             Ti 23 -- Ti 47                 -0.02        2.75530
             Ti 19 -- Ti 43                 -0.02        2.75530
             Ti 22 -- Ti 46                 -0.02        2.75530
             Ti 21 -- Ti 45                 -0.02        2.75530
             Ti 18 -- Ti 42                 -0.02        2.75530
             Ti 17 -- Ti 41                 -0.02        2.75530
             Ti 24 -- Ti 48                 -0.02        2.75530
             Ti 20 -- Ti 44                 -0.02        2.75530
             Ti 8  -- Ti 32                 -0.02        2.75535
             Ti 4  -- Ti 28                 -0.02        2.75535
             Ti 2  -- Ti 26                 -0.02        2.75535
             Ti 3  -- Ti 27                 -0.02        2.75535
             Ti 6  -- Ti 30                 -0.02        2.75535
             Ti 7  -- Ti 31                 -0.02        2.75535
             Ti 5  -- Ti 29                 -0.02        2.75535
             Ti 12 -- Ti 44                 -0.02        2.75554
             Ti 9  -- Ti 41                 -0.02        2.75554
             Ti 14 -- Ti 46                 -0.02        2.75554
             Ti 10 -- Ti 42                 -0.02        2.75554
             Ti 15 -- Ti 47                 -0.02        2.75554
             Ti 11 -- Ti 43                 -0.02        2.75554
             Ti 16 -- Ti 48                 -0.02        2.75554
             Ti 13 -- Ti 45                 -0.02        2.75554
             Ti 8  -- Ti 40                 -0.02        2.75557
             Ti 4  -- Ti 36                 -0.02        2.75557
             Ti 3  -- Ti 35                 -0.02        2.75557
             Ti 6  -- Ti 38                 -0.02        2.75557
             Ti 2  -- Ti 34                 -0.02        2.75557
             Ti 5  -- Ti 37                 -0.02        2.75557
             Ti 7  -- Ti 39                 -0.02        2.75557
             Ti 9  -- Ti 17                 -0.02        2.75557
             Ti 12 -- Ti 20                 -0.02        2.75557
             Ti 13 -- Ti 21                 -0.02        2.75557
             Ti 15 -- Ti 23                 -0.02        2.75557
             Ti 14 -- Ti 22                 -0.02        2.75557
             Ti 11 -- Ti 19                 -0.02        2.75557
             Ti 10 -- Ti 18                 -0.02        2.75557
             Ti 16 -- Ti 24                 -0.02        2.75557
             Ti 29 -- Ti 37                 -0.02        2.75559
             Ti 30 -- Ti 38                 -0.02        2.75559
             Ti 32 -- Ti 40                 -0.02        2.75559
             Ti 28 -- Ti 36                 -0.02        2.75559
             Ti 26 -- Ti 34                 -0.02        2.75559
             Ti 25 -- Ti 33                 -0.02        2.75559
             Ti 31 -- Ti 39                 -0.02        2.75559
             Ti 27 -- Ti 35                 -0.02        2.75559
             Ti 1  -- Ti 25                 -0.02        2.75925
             Al 9  -- Ti 1                   0.21        2.76873
             Al 8  -- Ti 44                  0.21        2.77385
             Al 6  -- Ti 42                  0.21        2.77385
             Al 7  -- Ti 47                  0.21        2.77385
             Al 3  -- Ti 43                  0.21        2.77385
             Al 2  -- Ti 42                  0.21        2.77385
             Al 5  -- Ti 45                  0.21        2.77385
             Al 1  -- Ti 41                  0.21        2.77385
             Al 4  -- Ti 44                  0.21        2.77385
             Al 4  -- Ti 20                  0.21        2.77385
             Al 3  -- Ti 47                  0.21        2.77385
             Al 2  -- Ti 46                  0.21        2.77385
             Al 1  -- Ti 45                  0.21        2.77385
             Al 8  -- Ti 48                  0.21        2.77385
             Al 7  -- Ti 43                  0.21        2.77385
             Al 6  -- Ti 46                  0.21        2.77385
             Al 5  -- Ti 41                  0.21        2.77385
             Al 12 -- Ti 32                  0.21        2.77385
             Al 12 -- Ti 28                  0.21        2.77385
             Al 10 -- Ti 26                  0.21        2.77385
             Al 11 -- Ti 27                  0.21        2.77385
             Al 9  -- Ti 25                  0.21        2.77385
             Al 6  -- Ti 18                  0.21        2.77385
             Al 7  -- Ti 23                  0.21        2.77385
             Al 5  -- Ti 21                  0.21        2.77385
             Al 3  -- Ti 19                  0.21        2.77385
             Al 1  -- Ti 17                  0.21        2.77385
             Al 8  -- Ti 20                  0.21        2.77385
             Al 2  -- Ti 18                  0.21        2.77385
             Al 10 -- Ti 30                  0.21        2.77386
             Al 13 -- Ti 29                  0.21        2.77386
             Al 15 -- Ti 31                  0.21        2.77386
             Al 14 -- Ti 26                  0.21        2.77386
             Al 4  -- Ti 48                  0.21        2.77386
             Al 4  -- Ti 24                  0.21        2.77386
             Al 14 -- Ti 30                  0.21        2.77386
             Al 16 -- Ti 28                  0.21        2.77386
             Al 15 -- Ti 27                  0.21        2.77386
             Al 13 -- Ti 25                  0.21        2.77386
             Al 16 -- Ti 32                  0.21        2.77386
             Al 3  -- Ti 23                  0.21        2.77386
             Al 2  -- Ti 22                  0.21        2.77386
             Al 1  -- Ti 21                  0.21        2.77386
             Al 7  -- Ti 19                  0.21        2.77386
             Al 5  -- Ti 17                  0.21        2.77386
             Al 6  -- Ti 22                  0.21        2.77386
             Al 8  -- Ti 24                  0.21        2.77386
             Al 9  -- Ti 29                  0.21        2.77386
             Al 11 -- Ti 31                  0.21        2.77386
             Al 12 -- Ti 8                   0.21        2.77387
             Al 11 -- Ti 7                   0.21        2.77387
             Al 9  -- Ti 5                   0.21        2.77387
             Al 12 -- Ti 4                   0.21        2.77387
             Al 10 -- Ti 6                   0.21        2.77387
             Al 10 -- Ti 2                   0.21        2.77387
             Al 11 -- Ti 3                   0.21        2.77387
             Al 16 -- Ti 4                   0.21        2.77387
             Al 16 -- Ti 8                   0.21        2.77387
             Al 15 -- Ti 7                   0.21        2.77387
             Al 13 -- Ti 5                   0.21        2.77387
             Al 15 -- Ti 3                   0.21        2.77387
             Al 14 -- Ti 2                   0.21        2.77387
             Al 14 -- Ti 6                   0.21        2.77387
             Al 4  -- Ti 12                  0.21        2.77413
             Al 1  -- Ti 9                   0.21        2.77413
             Al 8  -- Ti 12                  0.21        2.77413
             Al 6  -- Ti 10                  0.21        2.77413
             Al 5  -- Ti 13                  0.21        2.77413
             Al 2  -- Ti 10                  0.21        2.77413
             Al 7  -- Ti 15                  0.21        2.77413
             Al 3  -- Ti 11                  0.21        2.77413
             Al 5  -- Ti 9                   0.21        2.77413
             Al 4  -- Ti 16                  0.21        2.77413
             Al 2  -- Ti 14                  0.21        2.77413
             Al 1  -- Ti 13                  0.21        2.77413
             Al 3  -- Ti 15                  0.21        2.77413
             Al 6  -- Ti 14                  0.21        2.77413
             Al 7  -- Ti 11                  0.21        2.77413
             Al 8  -- Ti 16                  0.21        2.77413
             Al 12 -- Ti 40                  0.21        2.77415
             Al 12 -- Ti 36                  0.21        2.77415
             Al 10 -- Ti 38                  0.21        2.77415
             Al 13 -- Ti 37                  0.21        2.77415
             Al 10 -- Ti 34                  0.21        2.77415
             Al 9  -- Ti 33                  0.21        2.77415
             Al 11 -- Ti 39                  0.21        2.77415
             Al 11 -- Ti 35                  0.21        2.77415
             Al 16 -- Ti 36                  0.21        2.77415
             Al 13 -- Ti 33                  0.21        2.77415
             Al 16 -- Ti 40                  0.21        2.77415
             Al 9  -- Ti 37                  0.21        2.77415
             Al 14 -- Ti 34                  0.21        2.77415
             Al 15 -- Ti 35                  0.21        2.77415
             Al 14 -- Ti 38                  0.21        2.77415
             Al 15 -- Ti 39                  0.21        2.77415
             Al 13 -- Ti 1                   0.21        2.77904
             Al 2  -- Ti 1                   0.23        2.79818
             Ti 1  -- Ti 10                     5  -7.82693074E+004  7.70740805E+000  -5.12419133E-002     539.87  <-- SCF
      6  -7.82702694E+004  7.68853905E+000   1.50308400E-002     665.35  <-- SCF
      7  -7.82693004E+004  7.65971500E+000  -1.51399994E-002     778.42  <-- SCF
      8  -7.82693211E+004  7.65773607E+000   3.23315588E-004     898.96  <-- SCF
      9  -7.82693100E+004  7.65417423E+000  -1.73152350E-004    1009.63  <-- SCF
     10  -7.82693077E+004  7.65406626E+000  -3.61341559E-005    1111.07  <-- SCF
     11  -7.82693077E+004  7.65454849E+000   1.97200409E-007    1193.33  <-- SCF
     12  -7.82693075E+004  7.65463447E+000  -3.94341635E-006    1268.52  <-- SCF
------------------------------------------------------------------------ <-- SCF
 
Final energy, E             =  -78269.07683782     eV
Final free energy (E-TS)    =  -78269.30748779     eV
(energies not corrected for finite basis set)
 
NB est. 0K energy (E-0.5TS)      =  -78269.19216280     eV
 
Calculating total energy with cut-off of  595.000 eV.
------------------------------------------------------------------------ <-- SCF
SCF loop      Energy           Fermi           Energy gain       Timer   <-- SCF
                               energy          per atom          (sec)   <-- SCF
------------------------------------------------------------------------ <-- SCF
Initial  -7.82690767E+004  0.00000000E+000                      1295.94  <-- SCF
      1  -7.82693115E+004  7.65483983E+000   3.66861678E-003    1384.09  <-- SCF
      2  -7.82693116E+004  7.65483949E+000   8.24795011E-007    1455.48  <-- SCF
      3  -7.82694010E+004  7.65535967E+000   1.39813391E-003    1565.71  <-- SCF
      4  -7.82693071E+004  7.65463412E+000  -1.46801879E-003    1676.30  <-- SCF
      5  -7.82693084E+004  7.65461364E+000   2.03336806E-005    1775.15  <-- SCF
      6  -7.82693083E+004  7.65464087E+000  -9.76196763E-007    1848.02  <-- SCF
      7  -7.82693083E+004  7.65464061E+000  -2.17708113E-007    1917.67  <-- SCF
------------------------------------------------------------------------ <-- SCF
 
Final energy, E             =  -78269.07766311     eV
Final free energy (E-TS)    =  -78269.30830713     eV
(energies not corrected for finite basis set)
 
NB est. 0K energy (E-0.5TS)      =  -78269.19298512     eV
 
Calculating total energy with cut-off of  600.000 eV.
------------------------------------------------------------------------ <-- SCF
SCF loop      Energy           Fermi           Energy gain       Timer   <-- SCF
                               energy          per atom          (sec)   <-- SCF
------------------------------------------------------------------------ <-- SCF
Initial  -7.82690775E+004  0.00000000E+000                      1941.95  <-- SCF
      1  -7.82693138E+004  7.65468042E+000   3.69211393E-003    2032.82  <-- SCF
      2  -7.82693138E+004  7.65467996E+000   9.96778713E-007    2103.71  <-- SCF
      3  -7.82694449E+004  7.65606396E+000   2.04843188E-003    2215.38  <-- SCF
      4  -7.82693074E+004  7.65481075E+000  -2.14985127E-003    2326.65  <-- SCF
      5  -7.82693092E+004  7.65472529E+000   2.83736250E-005    2428.00  <-- SCF
      6  -7.82693091E+004  7.65457634E+000  -1.41772686E-006    2503.44  <-- SCF
      7  -7.82693090E+004  7.65456403E+000  -5.36663566E-007    2574.12  <-- SCF
------------------------------------------------------------------------ <-- SCF
 
Final energy, E             =  -78269.07840467     eV
Final free energy (E-TS)    =  -78269.30904557     eV
(energies not corrected for finite basis set)
 
NB est. 0K energy (E-0.5TS)      =  -78269.19372512     eV
 
 For future reference: finite basis dEtot/dlog(Ecut) =      -0.091502eV
 Total energy corrected for finite basis set =  -78269.309040 eV

 ******************* Unconstrained Forces *******************
 *                                                          *
 *               Cartesian components (eV/A)                *
 * -------------------------------------------------------- *
 *                         x            y            z      *
 *                                                          *
 * Al              1      0.00570     -0.00284     -0.00004 *
 * Al              2      0.00680      0.00013     -0.00015 *
 * Al              3     -0.00127     -0.00134     -0.00001 *
 * Al              4      0.00050     -0.00024     -0.00005 *
 * Al              5      0.00072     -0.00030      0.00001 *
 * Al              6     -0.00034      0.00001      0.00016 *
 * Al              7      0.00002      0.00079      0.00002 *
 * Al              8      0.00043     -0.00002      0.00003 *
 * Al              9     -0.00053     -0.00572      0.00715 *
 * Al             10      0.00042     -0.00049      0.00003 *
 * Al             11      0.00117      0.00007     -0.00056 *
 * Al             12     -0.00037      0.00032     -0.00084 *
 * Al             13     -0.00060     -0.00562     -0.00721 *
 * Al             14      0.00027     -0.00034     -0.00007 *
 * Al             15      0.00108     -0.00014      0.00059 *
 * Al             16     -0.00001      0.00029      0.00082 *
 * Ti              1     -0.03573      0.07116      0.00023 *
 * Ti              2     -0.00047      0.00628     -0.00082 *
 * Ti              3      0.00208      0.01101      0.00058 *
 * Ti              4     -0.00078      0.01320     -0.00069 *
 * Ti              5     -0.00195      0.00900     -0.00026 *
 * Ti              6      0.00212      0.00832      0.00095 *
 * Ti              7     -0.00027      0.01340     -0.00048 *
 * Ti              8     -0.00048      0.01392      0.00066 *
 * Ti              9     -0.00697      0.00254     -0.00000 *
 * Ti             10     -0.01133      0.00489     -0.00080 *
 * Ti             11     -0.01301      0.00617      0.00137 *
 * Ti             12     -0.00753      0.00511     -0.00079 *
 * Ti             13     -0.00861      0.00347     -0.00006 *
 * Ti             14     -0.01018      0.00566      0.00084 *
 * Ti             15     -0.01371      0.00498     -0.00126 *
 * Ti             16     -0.00618      0.00474      0.00077 *
 * Ti             17      0.01415      0.00036     -0.00711 *
 * Ti             18      0.00949      0.00578      0.00076 *
 * Ti             19      0.00899      0.00585      0.00451 *
 * Ti             20      0.01209      0.00662     -0.00007 *
 * Ti             21      0.01408      0.00104      0.00714 *
 * Ti             22      0.01068      0.00730     -0.00082 *
 * Ti             23      0.00757      0.00439     -0.00451 *
 * Ti             24      0.01167      0.00568      0.00002 *
 * Ti             25     -0.01032     -0.01334     -0.00013 *
 * Ti             26     -0.00545     -0.00845     -0.00039 *
 * Ti             27     -0.00877     -0.00549     -0.00100 *
 * Ti             28     -0.01721     -0.01187     -0.00075 *
 * Ti             29     -0.01103     -0.00917      0.00006 *
 * Ti             30     -0.00698     -0.00750      0.00037 *
 * Ti             31     -0.00812     -0.00530      0.00099 *
 * Ti             32     -0.00937     -0.00199      0.00075 *
 * Ti             33      0.01176     -0.01662      0.00100 *
 * Ti             34      0.01127     -0.00765      0.00001 *
 * Ti             35      0.02429     -0.01241     -0.00052 *
 * Ti             36      0.00873     -0.00135     -0.00183 *
 * Ti             37      0.00808     -0.00888     -0.00085 *
 * Ti             38      0.01226     -0.00832      0.00000 *
 * Ti             39      0.01284     -0.00409      0.00049 *
 * Ti             40      0.00749     -0.00201      0.00179 *
 * Ti             41      0.00016     -0.01361      0.00022 *
 * Ti             42     -0.00412     -0.01058     -0.00113 *
 * Ti             43     -0.00183     -0.00733     -0.00142 *
 * Ti             44      0.00115     -0.00821      0.00100 *
 * Ti             45      0.00026     -0.01409     -0.00021 *
 * Ti             46     -0.00267     -0.00916      0.00108 *
 * Ti             47     -0.00320     -0.00973      0.00141 *
 * Ti             48      0.00108     -0.00828     -0.00098 *
 *                                                          *
 ************************************************************

 ******************** Constrained Forces ********************
 *                                                          *
 *               Cartesian components (eV/A)                *
 * -------------------------------------------------------- *
 *                         x            y            z      *
 *                                                          *
 * Al              1      0.00570     -0.00284     -0.00004 *
 * Al              2      0.00680      0.00013     -0.00015 *
 * Al              3     -0.00127     -0.00134     -0.00001 *
 * Al              4      0.00050     -0.00024     -0.00005 *
 * Al              5      0.00072     -0.00030      0.00001 *
 * Al              6     -0.00034      0.00001      0.00016 *
 * Al              7      0.00002      0.00079      0.00002 *
 * Al              8      0.00043     -0.00002      0.00003 *
 * Al              9     -0.00053     -0.00572      0.00715 *
 * Al             10      0.00042     -0.00049      0.00003 *
 * Al             11      0.00117      0.00007     -0.00056 *
 * Al             12     -0.00037      0.00032     -0.00084 *
 * Al             13     -0.00060     -0.00562     -0.00721 *
 * Al             14      0.00027     -0.00034     -0.00007 *
 * Al             15      0.00108     -0.00014      0.00059 *
 * Al             16     -0.00001      0.00029      0.00082 *
 * Ti              1     -0.03573      0.07116      0.00023 *
 * Ti              2     -0.00047      0.00628     -0.00082 *
 * Ti              3      0.00208      0.01101      0.00058 *
 * Ti              4     -0.00078      0.01320     -0.00069 *
 * Ti              5     -0.00195      0.00900     -0.00026 *
 * Ti              6      0.00212      0.00832      0.00095 *
 * Ti              7     -0.00027      0.01340     -0.00048 *
 * Ti              8     -0.00048      0.01392      0.00066 *
 * Ti              9     -0.00697      0.00254     -0.00000 *
 * Ti             10     -0.01133      0.00489     -0.00080 *
 * Ti             11     -0.01301      0.00617      0.00137 *
 * Ti             12     -0.00753      0.00511     -0.00079 *
 * Ti             13     -0.00861      0.00347     -0.00006 *
 * Ti             14     -0.01018      0.00566      0.00084 *
 * Ti             15     -0.01371      0.00498     -0.00126 *
 * Ti             16     -0.00618      0.00474      0.00077 *
 * Ti             17      0.01415      0.00036     -0.00711 *
 * Ti             18      0.00949      0.00578      0.00076 *
 * Ti             19      0.00899      0.00585      0.00451 *
 * Ti             20      0.01209      0.00662     -0.00007 *
 * Ti             21      0.01408      0.00104      0.00714 *
 * Ti             22      0.01068      0.00730     -0.00082 *
 * Ti             23      0.00757      0.00439     -0.00451 *
 * Ti             24      0.01167      0.00568      0.00002 *
 * Ti             25     -0.01032     -0.01334     -0.00013 *
 * Ti             26     -0.00545     -0.00845     -0.00039 *
 * Ti             27     -0.00877     -0.00549     -0.00100 *
 * Ti             28     -0.01721     -0.01187     -0.00075 *
 * Ti             29     -0.01103     -0.00917      0.00006 *
 * Ti             30     -0.00698     -0.00750      0.00037 *
 * Ti             31     -0.00812     -0.00530      0.00099 *
 * Ti             32     -0.00937     -0.00199      0.00075 *
 * Ti             33      0.01176     -0.01662      0.00100 *
 * Ti             34      0.01127     -0.00765      0.00001 *
 * Ti             35      0.02429     -0.01241     -0.00052 *
 * Ti             36      0.00873     -0.00135     -0.00183 *
 * Ti             37      0.00808     -0.00888     -0.00085 *
 * Ti             38      0.01226     -0.00832      0.00000 *
 * Ti             39      0.01284     -0.00409      0.00049 *
 * Ti             40      0.00749     -0.00201      0.00179 *
 * Ti             41      0.00016     -0.01361      0.00022 *
 * Ti             42     -0.00412     -0.01058     -0.00113 *
 * Ti             43     -0.00183     -0.00733     -0.00142 *
 * Ti             44      0.00115     -0.00821      0.00100 *
 * Ti             45      0.00026     -0.01409     -0.00021 *
 * Ti             46     -0.00267     -0.00916      0.00108 *
 * Ti             47     -0.00320     -0.00973      0.00141 *
 * Ti             48      0.00108     -0.00828     -0.00098 *
 *                                                          *
 ************************************************************

 ***************** Stress Tensor *****************
 *                                               *
 *          Cartesian components (GPa)           *
 * --------------------------------------------- *
 *             x             y             z     *
 *                                               *
 *  x      7.678678     -0.001380      0.000019  *
 *  y     -0.001380      7.665336      0.000002  *
 *  z      0.000019      0.000002      7.521532  *
 *                                               *
 *  Pressure:   -7.6218                          *
 *                                               *
 *************************************************

 Pseudo atomic calculation performed for Al 3s2 3p1

 Converged in 15 iterations to a total energy of -105.5952 eV


 Pseudo atomic calculation performed for Ti 3s2 3p6 3d2 4s2

 Converged in 31 iterations to a total energy of -1585.9998 eV

Charge spilling parameter for spin component 1 = 0.13%

     Atomic Populations (Mulliken)
     -----------------------------
Species          Ion     s      p      d      f     Total  Charge (e)
=====================================================================
  Al              1     0.96   2.08   0.00   0.00   3.04    -0.04
  Al              2     0.96   2.08   0.00   0.00   3.04    -0.04
  Al              3     0.96   2.08   0.00   0.00   3.04    -0.04
  Al              4     0.96   2.08   0.00   0.00   3.04    -0.04
  Al              5     0.96   2.08   0.00   0.00   3.04    -0.04
  Al              6     0.96   2.08   0.00   0.00   3.04    -0.04
  Al              7     0.96   2.08   0.00   0.00   3.04    -0.04
  Al              8     0.96   2.08   0.00   0.00   3.04    -0.04
  Al              9     0.96   2.08   0.00   0.00   3.04    -0.04
  Al             10     0.96   2.08   0.00   0.00   3.04    -0.04
  Al             11     0.96   2.08   0.00   0.00   3.04    -0.04
  Al             12     0.96   2.08   0.00   0.00   3.04    -0.04
  Al             13     0.96   2.08   0.00   0.00   3.04    -0.04
  Al             14     0.96   2.08   0.00   0.00   3.04    -0.04
  Al             15     0.96   2.08   0.00   0.00   3.04    -0.04
  Al             16     0.96   2.08   0.00   0.00   3.04    -0.04
  Ti              1     2.35   6.85   2.78   0.00  11.99     0.01
  Ti              2     2.35   6.85   2.78   0.00  11.99     0.01
  Ti              3     2.35   6.85   2.78   0.00  11.99     0.01
  Ti              4     2.35   6.85   2.78   0.00  11.99     0.01
  Ti              5     2.35   6.85   2.78   0.00  11.99     0.01
  Ti              6     2.35   6.85   2.78   0.00  11.98     0.02
  Ti              7     2.35   6.85   2.78   0.00  11.99     0.01
  Ti              8     2.35   6.85   2.78   0.00  11.98     0.02
  Ti              9     2.35   6.85   2.78   0.00  11.99     0.01
  Ti             10     2.35   6.85   2.78   0.00  11.99     0.01
  Ti             11     2.35   6.85   2.78   0.00  11.98     0.02
  Ti             12     2.35   6.85   2.78   0.00  11.98     0.02
  Ti             13     2.35   6.85   2.78   0.00  11.98     0.02
  Ti             14     2.35   6.85   2.78   0.00  11.99     0.01
  Ti             15     2.35   6.85   2.78   0.00  11.98     0.02
  Ti             16     2.35   6.85   2.78   0.00  11.98     0.02
  Ti             17     2.35   6.85   2.78   0.00  11.98     0.02
  Ti             18     2.35   6.85   2.78   0.00  11.99     0.01
  Ti             19     2.35   6.85   2.78   0.00  11.98     0.02
  Ti             20     2.35   6.85   2.78   0.00  11.98     0.02
  Ti             21     2.35   6.85   2.78   0.00  11.98     0.02
  Ti             22     2.35   6.85   2.78   0.00  11.99     0.01
  Ti             23     2.35   6.85   2.78   0.00  11.99     0.01
  Ti             24     2.35   6.85   2.78   0.00  11.98     0.02
  Ti             25     2.35   6.85   2.78   0.00  11.98     0.02
  Ti             26     2.35   6.85   2.78   0.00  11.98     0.02
  Ti             27     2.35   6.85   2.78   0.00  11.99     0.01
  Ti             28     2.35   6.85   2.78   0.00  11.98     0.02
  Ti             29     2.35   6.85   2.78   0.00  11.99     0.01
  Ti             30     2.35   6.85   2.78   0.00  11.99     0.01
  Ti             31     2.35   6.85   2.78   0.00  11.99     0.01
  Ti             32     2.35   6.85   2.78   0.00  11.99     0.01
  Ti             33     2.35   6.85   2.78   0.00  11.99     0.01
  Ti             34     2.35   6.85   2.78   0.00  11.98     0.02
  Ti             35     2.35   6.85   2.78   0.00  11.99     0.01
  Ti             36     2.35   6.85   2.78   0.00  11.98     0.02
  Ti             37     2.35   6.85   2.78   0.00  11.98     0.02
  Ti             38     2.35   6.85   2.78   0.00  11.98     0.02
  Ti             39     2.35   6.85   2.78   0.00  11.99     0.01
  Ti             40     2.35   6.85   2.78   0.00  11.99     0.01
  Ti             41     2.35   6.85   2.78   0.00  11.98     0.02
  Ti             42     2.35   6.85   2.78   0.00  11.99     0.01
  Ti             43     2.35   6.85   2.78   0.00  11.99     0.01
  Ti             44     2.35   6.85   2.78   0.00  11.98     0.02
  Ti             45     2.35   6.85   2.78   0.00  11.98     0.02
  Ti             46     2.35   6.85   2.78   0.00  11.99     0.01
  Ti             47     2.35   6.85   2.78   0.00  11.98     0.02
  Ti             48     2.35   6.85   2.78   0.00  11.98     0.02
=====================================================================

                 Bond                   Population      Length (A)
======================================================================
             Ti 1  -- Ti 33                  0.06        2.81297
             Ti 1  -- Ti 25                  0.06        2.81798
             Ti 16 -- Ti 24                  0.06        2.82297
             Ti 12 -- Ti 20                  0.06        2.82297
             Ti 29 -- Ti 37                  0.06        2.82297
             Ti 25 -- Ti 33                  0.06        2.82297
             Ti 15 -- Ti 23                  0.06        2.82297
             Ti 11 -- Ti 19                  0.06        2.82297
             Ti 31 -- Ti 39                  0.06        2.82297
             Ti 30 -- Ti 38                  0.06        2.82297
             Ti 27 -- Ti 35                  0.06        2.82297
             Ti 26 -- Ti 34                  0.06        2.82297
             Ti 14 -- Ti 22                  0.06        2.82297
             Ti 13 -- Ti 21                  0.06        2.82297
             Ti 10 -- Ti 18                  0.06        2.82297
             Ti 9  -- Ti 17                  0.06        2.82297
             Ti 32 -- Ti 40                  0.06        2.82297
             Ti 28 -- Ti 36                  0.06        2.82297
             Ti 22 -- Ti 46                  0.06        2.82297
             Ti 18 -- Ti 42                  0.06        2.82297
             Ti 24 -- Ti 48                  0.06        2.82297
             Ti 23 -- Ti 47                  0.06        2.82297
             Ti 21 -- Ti 45                  0.06        2.82297
             Ti 20 -- Ti 44                  0.06        2.82297
             Ti 19 -- Ti 43                  0.06        2.82297
             Ti 17 -- Ti 41                  0.06        2.82297
             Ti 15 -- Ti 47                  0.06        2.82297
             Ti 11 -- Ti 43                  0.06        2.82297
             Ti 8  -- Ti 40                  0.06        2.82297
             Ti 7  -- Ti 31                  0.06        2.82297
             Ti 4  -- Ti 36                  0.06        2.82297
             Ti 3  -- Ti 27                  0.06        2.82297
             Ti 16 -- Ti 48                  0.06        2.82297
             Ti 13 -- Ti 45                  0.06        2.82297
             Ti 12 -- Ti 44                  0.06        2.82297
             Ti 9  -- Ti 41                  0.06        2.82297
             Ti 7  -- Ti 39                  0.06        2.82297
             Ti 3  -- Ti 35                  0.06        2.82297
             Ti 14 -- Ti 46                  0.06        2.82297
             Ti 10 -- Ti 42                  0.06        2.82297
             Ti 8  -- Ti 32                  0.06        2.82297
             Ti 4  -- Ti 28                  0.06        2.82297
             Ti 6  -- Ti 30                  0.06        2.82297
             Ti 5  -- Ti 37                  0.06        2.82297
             Ti 5  -- Ti 29                  0.06        2.82297
             Ti 2  -- Ti 26                  0.06        2.82297
             Ti 6  -- Ti 38                  0.06        2.82297
             Ti 2  -- Ti 34                  0.06        2.82297
             Al 13 -- Ti 1                   0.22        2.83658
             Al 9  -- Ti 1                   0.22        2.83658
             Al 8  -- Ti 16                  0.22        2.84153
             Al 16 -- Ti 40                  0.22        2.84153
             Al 15 -- Ti 39                  0.22        2.84153
             Al 7  -- Ti 15                  0.22        2.84153
             Al 4  -- Ti 16                  0.22        2.84153
             Al 4  -- Ti 12                  0.22        2.84153
             Al 16 -- Ti 36                  0.22        2.84153
             Al 15 -- Ti 35                  0.22        2.84153
             Al 12 -- Ti 36                  0.22        2.84153
             Al 11 -- Ti 35                  0.22        2.84153
             Al 3  -- Ti 15                  0.22        2.84153
             Al 3  -- Ti 11                  0.22        2.84153
             Al 8  -- Ti 12                  0.22        2.84153
             Al 12 -- Ti 40                  0.22        2.84153
             Al 11 -- Ti 39                  0.22        2.84153
             Al 7  -- Ti 11                  0.22        2.84153
             Al 13 -- Ti 37                  0.22        2.84153
             Al 5  -- Ti 13                  0.22        2.84153
             Al 14 -- Ti 38                  0.22        2.84153
             Al 13 -- Ti 33                  0.22        2.84153
             Al 9  -- Ti 33                  0.22        2.84153
             Al 6  -- Ti 14                  0.22        2.84153
             Al 1  -- Ti 13                  0.22        2.84153
             Al 1  -- Ti 9                   0.22        2.84153
             Al 14 -- Ti 34                  0.22        2.84153
             Al 10 -- Ti 34                  0.22        2.84153
             Al 9  -- Ti 37                  0.22        2.84153
             Al 2  -- Ti 14                  0.22        2.84153
             Al 2  -- Ti 10                  0.22        2.84153
             Al 5  -- Ti 9                   0.22        2.84153
             Al 10 -- Ti 38                  0.22        2.84153
             Al 6  -- Ti 10                  0.22        2.84153
             Al 7  -- Ti 23                  0.22        2.84153
             Al 15 -- Ti 31                  0.22        2.84153
             Al 8  -- Ti 24                  0.22        2.84153
             Al 3  -- Ti 23                  0.22        2.84153
             Al 3  -- Ti 19                  0.22        2.84153
             Al 16 -- Ti 32                  0.22        2.84153
             Al 15 -- Ti 27                  0.22        2.84153
             Al 11 -- Ti 27                  0.22        2.84153
             Al 4  -- Ti 24                  0.22        2.84153
             Al 4  -- Ti 20                  0.22        2.84153
             Al 16 -- Ti 28                  0.22        2.84153
             Al 12 -- Ti 28                  0.22        2.84153
             Al 11 -- Ti 31                  0.22        2.84153
             Al 8  -- Ti 20                  0.22        2.84153
             Al 7  -- Ti 19                  0.22        2.84153
             Al 12 -- Ti 32                  0.22        2.84153
             Al 6  -- Ti 46                  0.22        2.84153
             Al 5  -- Ti 45                  0.22        2.84153
             Al 2  -- Ti 46                  0.22        2.84153
             Al 2  -- Ti 42                  0.22        2.84153
             Al 1  -- Ti 45                  0.22        2.84153
             Al 1  -- Ti 41                  0.22        2.84153
             Al 6  -- Ti 42                  0.22        2.84153
             Al 5  -- Ti 41                  0.22        2.84153
             Al 14 -- Ti 30                  0.22        2.84153
             Al 6  -- Ti 22                  0.22        2.84153
             Al 13 -- Ti 29                  0.22        2.84153
             Al 5  -- Ti 21                  0.22        2.84153
             Al 14 -- Ti 26                  0.22        2.84153
             Al 10 -- Ti 26                  0.22        2.84153
             Al 2  -- Ti 22                  0.22        2.84153
             Al 2  -- Ti 18                  0.22        2.84153
             Al 13 -- Ti 25                  0.22        2.84153
             Al 9  -- Ti 25                  0.22        2.84153
             Al 6  -- Ti 18                  0.22        2.84153
             Al 1  -- Ti 21                  0.22        2.84153
             Al 1  -- Ti 17                  0.22        2.84153
             Al 10 -- Ti 30                  0.22        2.84153
             Al 9  -- Ti 29                  0.22        2.84153
             Al 5  -- Ti 17                  0.22        2.84153
             Al 14 -- Ti 6                   0.22        2.84153
             Al 13 -- Ti 5                   0.22        2.84153
             Al 16 -- Ti 8                   0.22        2.84153
             Al 15 -- Ti 7                   0.22        2.84153
             Al 8  -- Ti 48                  0.22        2.84153
             Al 7  -- Ti 47                  0.22        2.84153
             Al 14 -- Ti 2                   0.22        2.84153
             Al 10 -- Ti 2                   0.22        2.84153
             Al 16 -- Ti 4                   0.22        2.84153
             Al 15 -- Ti 3                   0.22        2.84153
             Al 12 -- Ti 4                   0.22        2.84153
             Al 11 -- Ti 3                   0.22        2.84153
             Al 10 -- Ti 6                   0.22        2.84153
             Al 9  -- Ti 5                   0.22        2.84153
             Al 4  -- Ti 48                  0.22        2.84153
             Al 4  -- Ti 44                  0.22        2.84153
             Al 3  -- Ti 47                  0.22        2.84153
             Al 3  -- Ti 43                  0.22        2.84153
             Al 12 -- Ti 8                   0.22        2.84153
             Al 11 -- Ti 7                   0.22        2.84153
             Al 8  -- Ti 44                  0.22        2.84153
             Al 7  -- Ti 43                  0.22        2.84153
             Al 2  -- Ti 1                   0.23        2.87069
             Al 8  -- Ti 30                  0.23        2.87558
             Al 4  -- Ti 26                  0.23        2.87558
             Al 7  -- Ti 29                  0.23        2.87558
             Al 3  -- Ti 25                  0.23        2.87558
             Al 16 -- Ti 22                  0.23        2.87558
             Al 15 -- Ti 21                  0.23        2.87558
             Al 12 -- Ti 18                  0.23        2.87558
             Al 11 -- Ti 17                  0.23        2.87558
[...]
   | Element: Ti Ionic charge: 12.00 Level of theory: LDA     |                
   | Atomic Solver: Koelling-Harmon                           |                
   |                                                          |                
   |               Reference Electronic Structure             |                
   |         Orbital         Occupation         Energy        |                
   |            3s              2.000           -2.288        |                
   |            3p              6.000           -1.425        |                
   |            4s              2.000           -0.169        |                
   |            3d              2.000           -0.164        |                
   |                                                          |                
   |                 Pseudopotential Definition               |                
   |        Beta     l      e      Rc     scheme   norm       |                
   |          1      0   -2.288   1.793     qc      0         |                
   |          2      0   -0.169   1.793     qc      0         |                
   |          3      0    0.250   1.793     qc      0         |                
   |          4      1   -1.425   1.793     qc      0         |                
   |          5      1    0.250   1.793     qc      0         |                
   |          6      2   -0.164   1.793     qc      0         |                
   |          7      2    0.250   1.793     qc      0         |                
   |         loc     3    0.000   1.793     pn      0         |                
   |                                                          |                
   | Augmentation charge Rinner = 1.263                       |                
   | Partial core correction Rc = 1.263                       |                
   ------------------------------------------------------------                
   | "3|1.8|9|10|11|30U:40:31:32(qc=5.5)"                     |                
   ------------------------------------------------------------                
   |      Author: Chris J. Pickard, Cambridge University      |                
   ============================================================                

 Pseudo atomic calculation performed for Al 3s2 3p1

 Converged in 15 iterations to a total energy of -105.5952 eV


 Pseudo atomic calculation performed for Ti 3s2 3p6 3d2 4s2

 Converged in 31 iterations to a total energy of -1585.9998 eV

 Calculation parallelised over 42 processes.
 Data is distributed by G-vector(3-way) and k-point(14-way)

 ************************************ Title ************************************
 

 ***************************** General Parameters ******************************
  
 output verbosity                               : normal  (1)
 write checkpoint data to                       : castep.check
 type of calculation                            : single point energy
 stress calculation                             : on
 density difference calculation                 : off
 electron localisation func (ELF) calculation   : off
 Hirshfeld analysis                             : off
 unlimited duration calculation
 timing information                             : on
 memory usage estimate                          : on
 write final potential to formatted file        : off
 write final density to formatted file          : off
 write BibTeX reference list                    : on
 write OTFG pseudopotential files               : on
 write electrostatic potential file             : on
 write bands file                               : on
 checkpoint writing                             : off
  
 output         length unit                     : A
 output           mass unit                     : amu
 output           time unit                     : ps
 output         charge unit                     : e
 output           spin unit                     : hbar/2
 output         energy unit                     : eV
 output          force unit                     : eV/A
 output       velocity unit                     : A/ps
 output       pressure unit                     : GPa
 output     inv_length unit                     : 1/A
 output      frequency unit                     : cm-1
 output force constant unit                     : eV/A**2
 output         volume unit                     : A**3
 output   IR intensity unit                     : (D/A)**2/amu
 output         dipole unit                     : D
 output         efield unit                     : eV/A/e
 output        entropy unit                     : J/mol/K
  
 wavefunctions paging                           : none
 random number generator seed                   : randomised (124520194)
 data distribution                              : optimal for this architecture
 optimization strategy                          : maximize speed(+++)

 *********************** Exchange-Correlation Parameters ***********************
  
 using functional                               : Local Density Approximation
 relativistic treatment                         : Koelling-Harmon
 DFT+D: Semi-empirical dispersion correction    : off

 ************************* Pseudopotential Parameters **************************
  
 pseudopotential representation                 : reciprocal space
 <beta|phi> representation                      : reciprocal space
 spin-orbit coupling                            : off

 **************************** Basis Set Parameters *****************************
  
 plane wave basis set cut-off                   :   600.0000   eV
 size of standard grid                          :     1.7500
 size of   fine   gmax                          :    21.9610   1/A
 finite basis set correction                    : automatic
 number of sample energies                      :          3
           sample  spacing                      :     5.0000   eV

 **************************** Electronic Parameters ****************************
  
 number of  electrons                           :  624.0    
 net charge of system                           :  0.000    
 treating system as non-spin-polarized
 number of bands                                :        374

 ********************* Electronic Minimization Parameters **********************
  
 Method: Treating system as metallic with density mixing treatment of electrons,
         and number of  SD  steps               :          1
         and number of  CG  steps               :          4
  
 total energy / atom convergence tol.           : 0.1000E-04   eV
 eigen-energy convergence tolerance             : 0.1000E-05   eV
 max force / atom convergence tol.              : ignored
 convergence tolerance window                   :          3   cycles
 max. number of SCF cycles                      :        250
 number of fixed-spin iterations                :         10
 smearing scheme                                : Gaussian
 smearing width                                 : 0.1000       eV
 Fermi energy convergence tolerance             : 0.2721E-13   eV
 periodic dipole correction                     : NONE

 ************************** Density Mixing Parameters **************************
  
 density-mixing scheme                          : Pulay
 max. length of mixing history                  :         20
 charge density mixing amplitude                : 0.8000    
 cut-off energy for mixing                      :  600.0       eV

 *********************** Population Analysis Parameters ************************
  
 Population analysis with cutoff                :  3.000       A

 *******************************************************************************
  

                           -------------------------------
                                      Unit Cell
                           -------------------------------
        Real Lattice(A)                      Reciprocal Lattice(1/A)
  11.2210070   0.0003580   0.0000000        0.5599381   0.3232570   0.0000000
  -5.6101940   9.7178460   0.0000000       -0.0000206   0.6465496   0.0000000
   0.0000000   0.0000000   9.0896980        0.0000000   0.0000000   0.6912425

                       Lattice parameters(A)       Cell Angles
                    a =   11.221007          alpha =   90.000000
                    b =   11.220999          beta  =   90.000000
                    c =    9.089698          gamma =  119.996372

                       Current cell volume =  991.195448       A**3
                                   density =    2.753565   AMU/A**3
                                           =    4.572401     g/cm^3

                           -------------------------------
                                     Cell Contents
                           -------------------------------
                         Total number of ions in cell =   64
                      Total number of species in cell =    2
                        Max number of any one species =   48

            xxxxxxxxxxxxxxxxxxxxxxxxxxxxxxxxxxxxxxxxxxxxxxxxxxxxxxxxxxxx
            x  Element    Atom        Fractional coordinates of atoms  x
            x            Number           u          v          w      x
            x----------------------------------------------------------x
            x  Al           1         0.166686   0.333315   0.125002   x 
            x  Al           2         0.666686   0.333315   0.125002   x 
            x  Al           3         0.166686   0.833315   0.125002   x 
            x  Al           4         0.666686   0.833316   0.125002   x 
            x  Al           5         0.166686   0.333315   0.625002   x 
            x  Al           6         0.666686   0.333315   0.625001   x 
            x  Al           7         0.166686   0.833315   0.625002   x 
            x  Al           8         0.666686   0.833315   0.625001   x 
            x  Al           9         0.333313   0.167578   0.375001   x 
            x  Al          10         0.833314   0.166687   0.375001   x 
            x  Al          11         0.333314   0.666687   0.375001   x 
            x  Al          12         0.833314   0.666687   0.375001   x 
            x  Al          13         0.333314   0.166687   0.875001   x 
            x  Al          14         0.833313   0.166687   0.875001   x 
            x  Al          15         0.333314   0.666687   0.875001   x 
            x  Al          16         0.833314   0.666687   0.875001   x 
            x  Ti           1         0.415168   0.330376   0.125002   x 
            x  Ti           2         0.915168   0.330376   0.125002   x 
            x  Ti           3         0.415168   0.830376   0.125002   x 
            x  Ti           4         0.915168   0.830376   0.125002   x 
            x  Ti           5         0.415168   0.330376   0.625001   x 
            x  Ti           6         0.915168   0.330376   0.625001   x 
            x  Ti           7         0.415168   0.830376   0.625001   x 
            x  Ti           8         0.915168   0.830376   0.625001   x 
            x  Ti           9         0.084812   0.415187   0.375001   x 
            x  Ti          10         0.584812   0.415187   0.375001   x 
            x  Ti          11         0.084812   0.915187   0.375001   x 
            x  Ti          12         0.584812   0.915187   0.375001   x 
            x  Ti          13         0.084812   0.415187   0.875001   x 
            x  Ti          14         0.584812   0.415187   0.875001   x 
            x  Ti          15         0.084812   0.915187   0.875001   x 
            x  Ti          16         0.584812   0.915187   0.875001   x 
            x  Ti          17         0.330372   0.415163   0.375001   x 
            x  Ti          18         0.830373   0.415163   0.375001   x 
            x  Ti          19         0.330373   0.915163   0.375001   x 
            x  Ti          20         0.830373   0.915163   0.375001   x 
            x  Ti          21         0.330372   0.415163   0.875001   x 
            x  Ti          22         0.830373   0.415163   0.875001   x 
            x  Ti          23         0.330373   0.915163   0.875001   x 
            x  Ti          24         0.830373   0.915163   0.875001   x 
            x  Ti          25         0.169627   0.084838   0.125002   x 
            x  Ti          26         0.669627   0.084838   0.125002   x 
            x  Ti          27         0.169627   0.584838   0.125002   x 
            x  Ti          28         0.669627   0.584838   0.125002   x 
            x  Ti          29         0.169627   0.084837   0.625002   x 
            x  Ti          30         0.669627   0.084837   0.625001   x 
            x  Ti          31         0.169627   0.584837   0.625002   x 
            x  Ti          32         0.669627   0.584838   0.625001   x 
            x  Ti          33         0.415190   0.084815   0.125002   x 
            x  Ti          34         0.915190   0.084815   0.125002   x 
            x  Ti          35         0.415190   0.584815   0.125002   x 
            x  Ti          36         0.915190   0.584815   0.125002   x 
            x  Ti          37         0.415190   0.084815   0.625002   x 
            x  Ti          38         0.915190   0.084815   0.625001   x 
            x  Ti          39         0.415190   0.584815   0.625001   x 
            x  Ti          40         0.915190   0.584815   0.625001   x 
            x  Ti          41         0.084836   0.169629   0.375001   x 
            x  Ti          42         0.584837   0.169629   0.375001   x 
            x  Ti          43         0.084837   0.669629   0.375001   x 
            x  Ti          44         0.584837   0.669629   0.375001   x 
            x  Ti          45         0.084836   0.169629   0.875001   x 
            x  Ti          46         0.584837   0.169629   0.875001   x 
            x  Ti          47         0.084837   0.669629   0.875001   x 
            x  Ti          48         0.584837   0.669629   0.875001   x 
            xxxxxxxxxxxxxxxxxxxxxxxxxxxxxxxxxxxxxxxxxxxxxxxxxxxxxxxxxxxx


                         No user defined ionic velocities

                           -------------------------------
                                   Details of Species
                           -------------------------------

                               Mass of species in AMU
                                    Al   26.9815400
                                    Ti   47.8670000

                          Electric Quadrupole Moment (Barn)
                                    Al    0.1466000 Isotope 27
                                    Ti    0.3020000 Isotope 47

                          Files used for pseudopotentials:
                                    Al 3|2.2|2.2|1.4|4|5|5|30:31:32U2U2
                                    Ti 3|1.8|9|10|11|30U:40:31:32(qc=5.5)

                           -------------------------------
                              k-Points For BZ Sampling
                           -------------------------------
                       MP grid size for SCF calculation is  3  3  3
                            with an offset of   0.000  0.000  0.000
                       Number of kpoints used =            14

                           -------------------------------
                               Symmetry and Constraints
                           -------------------------------

                      Maximum deviation from symmetry =  0.00000         ANG

                      Number of symmetry operations   =           1
                      Number of ionic constraints     =           3
                      Point group of crystal =     1: C1, 1, 1
                      Space group of crystal =     6: Pm, P -2y

             Set iprint > 1 for details on symmetry rotations/translations

                         Centre of mass is constrained
             Set iprint > 1 for details of linear ionic constraints

                         Number of cell constraints= 0
                         Cell constraints are:  1 2 3 4 5 6

                         External pressure/stress (GPa)
                          0.00000   0.00000   0.00000
                                    0.00000   0.00000
                                              0.00000
  
+---------------- MEMORY AND SCRATCH DISK ESTIMATES PER PROCESS --------------+
|                                                     Memory          Disk    |
| Baseline code, static data and system overhead      173.0 MB         0.0 MB |
| BLAS internal memory storage                          0.0 MB         0.0 MB |
| Model and support data                              717.9 MB         0.0 MB |
| Electronic energy minimisation requirements         327.0 MB         0.0 MB |
| Force calculation requirements                       20.3 MB         0.0 MB |
| Stress calculation requirements                      22.4 MB         0.0 MB |
|                                               ----------------------------- |
| Approx. total storage required per process         1218.0 MB         0.0 MB |
|                                                                             |
| Requirements will fluctuate during execution and may exceed these estimates |
+-----------------------------------------------------------------------------+
Calculating finite basis set correction with  3 cut-off energies.
Calculating total energy with cut-off of  590.000 eV.
------------------------------------------------------------------------ <-- SCF
SCF loop      Energy           Fermi           Energy gain       Timer   <-- SCF
                               energy          per atom          (sec)   <-- SCF
------------------------------------------------------------------------ <-- SCF
Initial  -6.89702607E+004  0.00000000E+000                        29.64  <-- SCF
      1  -7.61830377E+004  1.08185521E+001   1.12699641E+002     135.09  <-- SCF
      2  -7.81535374E+004  9.27501977E+000   3.07890580E+001     201.83  <-- SCF
      3  -7.82722435E+004  8.74402709E+000   1.85478283E+000     283.98  <-- SCF
      4  -7.82738006E+004  8.13852107E+000   2.43286251E-002     382.76  <-- SCF
      5  -7.82709864E+004  8.46172274E+000  -4.39708780E-002     481.88  <-- SCF
      6  -7.82717195E+004  8.43981515E+000   1.14549145E-002     594.72  <-- SCF
      7  -7.82709983E+004  8.41708857E+000  -1.12689700E-002     695.65  <-- SCF
      8  -7.82710186E+004  8.41504743E+000   3.16454419E-004     802.56  <-- SCF
      9  -7.82710054E+004  8.41228313E+000  -2.05933406E-004     895.91  <-- SCF
     10  -7.82710051E+004  8.41235755E+000  -5.24249102E-006     983.44  <-- SCF
     11  -7.82710047E+004  8.41277495E+000  -5.25174604E-006    1052.15  <-- SCF
     12  -7.82710047E+004  8.41282382E+000  -8.11839500E-008    1117.98  <-- SCF
------------------------------------------------------------------------ <-- SCF
 
Final energy, E             =  -78270.78843452     eV
Final free energy (E-TS)    =  -78271.00471691     eV
(energies not corrected for finite basis set)
 
NB est. 0K energy (E-0.5TS)      =  -78270.89657572     eV
 
Calculating total energy with cut-off of  595.000 eV.
------------------------------------------------------------------------ <-- SCF
SCF loop      Energy           Fermi           Energy gain       Timer   <-- SCF
                               energy          per atom          (sec)   <-- SCF
------------------------------------------------------------------------ <-- SCF
Initial  -7.82707881E+004  0.00000000E+000                      1139.23  <-- SCF
      1  -7.82710137E+004  8.41305849E+000   3.52477750E-003    1223.77  <-- SCF
      2  -7.82710138E+004  8.41305789E+000   1.18143506E-006    1291.30  <-- SCF
      3  -7.82712343E+004  8.41589241E+000   3.44489860E-003    1392.20  <-- SCF
      4  -7.82710031E+004  8.41298444E+000  -3.61226677E-003    1492.96  <-- SCF
