 +-------------------------------------------------+
 |                                                 |
 |      CCC   AA    SSS  TTTTT  EEEEE  PPPP        |
 |     C     A  A  S       T    E      P   P       |
 |     C     AAAA   SS     T    EEE    PPPP        |
 |     C     A  A     S    T    E      P           |
 |      CCC  A  A  SSS     T    EEEEE  P           |
 |                                                 |
 +-------------------------------------------------+
 |                                                 |
 | Welcome to Academic Release CASTEP version 17.21|          
 | Ab Initio Total Energy Program                  |
 |                                                 |
 | Authors:                                        |
 | M. Segall, M. Probert, C. Pickard, P. Hasnip,   |
 | S. Clark, K. Refson, J. R. Yates, M. Payne      |
 |                                                 |
 | Contributors:                                   |
 | P. Lindan, P. Haynes, J. White, V. Milman,      |
 | N. Govind, M. Gibson, P. Tulip, V. Cocula,      |
 | B. Montanari, D. Quigley, M. Glover,            |
 | L. Bernasconi, A. Perlov, M. Plummer,           |
 | E. McNellis, J. Meyer, J. Gale, D. Jochym       |
 | J. Aarons, B. Walker, R. Gillen, D. Jones       |
 | T. Green, I. J. Bush, C. J. Armstrong,          |
 | E. J. Higgins, E. L. Brown, M. S. McFly,        |
 | J. Wilkins, B-C. Shih, P. J. P. Byrne           |
 |                                                 |
 | Copyright (c) 2000 - 2017                       |
 |                                                 |
 |     Distributed under the terms of an           |
 |     Agreement between the United Kingdom        |
 |     Car-Parrinello (UKCP) Consortium,           |
 |     Daresbury Laboratory and Accelrys, Inc.     |
 |                                                 |
 | Please cite                                     |
 |                                                 |
 |     "First principles methods using CASTEP"     |
 |                                                 |
 |         Zeitschrift fuer Kristallographie       |
 |           220(5-6) pp. 567-570 (2005)           |
 |                                                 |
 | S. J. Clark, M. D. Segall, C. J. Pickard,       |
 | P. J. Hasnip, M. J. Probert, K. Refson,         |
 | M. C. Payne                                     |
 |                                                 |
 |       in all publications arising from          |
 |              your use of CASTEP                 |
 |                                                 |
 +-------------------------------------------------+


 Compiled for linux_x86_64_gfortran6.0-XT on Fri, 21 Jul 2017 10:20:05 +0100
 from code version 056e886bd5a1+ Castep172_branch Mon, 15 May 2017 14:45:35 +0100
 Compiler: GNU Fortran 6.3.0; Optimisation: fast
 MATHLIBS: Intel MKL(2017.0.0) (LAPACK version 3.6.0)
 FFT Lib : fftw3 version commercial-fftw-3.3.4-sse2-avx
 Fundamental constants values: CODATA 2010

 Run started: Wed, 11 Dec 2019 23:29:37 +0000

 Atomic calculation performed for Al: 1s2 2s2 2p6 3s2 3p1

 Converged in 55 iterations to an ae energy of -6578.725 eV

   ============================================================                
   | Pseudopotential Report - Date of generation 11-12-2019   |                
   ------------------------------------------------------------                
   | Element: Al Ionic charge:  3.00 Level of theory: LDA     |                
   | Atomic Solver: Koelling-Harmon                           |                
   |                                                          |                
   |               Reference Electronic Structure             |                
   |         Orbital         Occupation         Energy        |                
   |            3s              2.000           -0.288        |                
   |            3p              1.000           -0.102        |                
   |                                                          |                
   |                 Pseudopotential Definition               |                
   |        Beta     l      e      Rc     scheme   norm       |                
   |          1      0   -0.288   2.192     qc      0         |                
   |          2      0    0.250   2.192     qc      0         |                
   |          3      1   -0.102   2.192     qc      0         |                
   |          4      1    0.250   2.192     qc      0         |                
   |          5      2    0.000   2.000     qc      0         |                
   |          6      2    0.250   2.000     qc      0         |                
   |         loc     3    0.000   2.192     pn      0         |                
   |                                                          |                
   | Augmentation charge Rinner = 1.398                       |                
   | Partial core correction Rc = 1.398                       |                
   ------------------------------------------------------------                
   | "3|2.2|2.2|1.4|4|5|5|30:31:32U2U2"                       |                
   ------------------------------------------------------------                
   |      Author: Chris J. Pickard, Cambridge University      |                
   ============================================================                

 Atomic calculation performed for Ti: 1s2 2s2 2p6 3s2 3p6 3d2 4s2

 Converged in 78 iterations to an ae energy of -23176.516 eV

   ============================================================                
   | Pseudopotential Report - Date of generation 11-12-2019   |                
   ------------------------------------------------------------                
   | Element: Ti Ionic charge: 12.00 Level of theory: LDA     |                
   | Atomic Solver: Koelling-Harmon                           |                
   |                                                          |                
   |               Reference Electronic Structure             |                
   |         Orbital         Occupation         Energy        |                
   |            3s              2.000           -2.288        |                
   |            3p              6.000           -1.425        |                
   |            4s              2.000           -0.169        |                
   |            3d              2.000           -0.164        |                
   |                                                          |                
   |                 Pseudopotential Definition               |                
   |        Beta     l      e      Rc     scheme   norm       |                
   |          1      0   -2.288   1.793     qc      0         |                
   |          2      0   -0.169   1.793     qc      0         |                
   |          3      0    0.250   1.793     qc      0         |                
   |          4      1   -1.425   1.793     qc      0         |                
   |          5      1    0.250   1.793     qc      0         |                
   |          6      2   -0.164   1.793     qc      0         |                
   |          7      2    0.250   1.793     qc      0         |                
   |         loc     3    0.000   1.793     pn      0         |                
   |                                                          |                
   | Augmentation charge Rinner = 1.263                       |                
   | Partial core correction Rc = 1.263                       |                
   ------------------------------------------------------------                
   | "3|1.8|9|10|11|30U:40:31:32(qc=5.5)"                     |                
   ------------------------------------------------------------                
   |      Author: Chris J. Pickard, Cambridge University      |                
   ============================================================                

 Pseudo atomic calculation performed for Al 3s2 3p1

 Converged in 15 iterations to a total energy of -105.5951 eV


 Pseudo atomic calculation performed for Ti 3s2 3p6 3d2 4s2

 Converged in 31 iterations to a total energy of -1585.9719 eV

 Calculation parallelised over 42 processes.
 Data is distributed by G-vector(3-way) and k-point(14-way)

 ************************************ Title ************************************
 

 ***************************** General Parameters ******************************
  
 output verbosity                               : normal  (1)
 write checkpoint data to                       : castep.check
 type of calculation                            : single point energy
 stress calculation                             : on
 density difference calculation                 : off
 electron localisation func (ELF) calculation   : off
 Hirshfeld analysis                             : off
 unlimited duration calculation
 timing information                             : on
 memory usage estimate                          : on
 write final potential to formatted file        : off
 write final density to formatted file          : off
 write BibTeX reference list                    : on
 write OTFG pseudopotential files               : on
 write electrostatic potential file             : on
 write bands file                               : on
 checkpoint writing                             : off
  
 output         length unit                     : A
 output           mass unit                     : amu
 output           time unit                     : ps
 output         charge unit                     : e
 output           spin unit                     : hbar/2
 output         energy unit                     : eV
 output          force unit                     : eV/A
 output       velocity unit                     : A/ps
 output       pressure unit                     : GPa
 output     inv_length unit                     : 1/A
 output      frequency unit                     : cm-1
 output force constant unit                     : eV/A**2
 output         volume unit                     : A**3
 output   IR intensity unit                     : (D/A)**2/amu
 output         dipole unit                     : D
 output         efield unit                     : eV/A/e
 output        entropy unit                     : J/mol/K
  
 wavefunctions paging                           : none
 random number generator seed                   : randomised (232939172)
 data distribution                              : optimal for this architecture
 optimization strategy                          : balance speed and memory

 *********************** Exchange-Correlation Parameters ***********************
  
 using functional                               : Local Density Approximation
 relativistic treatment                         : Koelling-Harmon
 DFT+D: Semi-empirical dispersion correction    : off

 ************************* Pseudopotential Parameters **************************
  
 pseudopotential representation                 : reciprocal space
 <beta|phi> representation                      : reciprocal space
 spin-orbit coupling                            : off

 **************************** Basis Set Parameters *****************************
  
 plane wave basis set cut-off                   :   500.0000   eV
 size of standard grid                          :     1.7500
 size of   fine   gmax                          :    20.0476   1/A
 finite basis set correction                    : automatic
 number of sample energies                      :          3
           sample  spacing                      :     5.0000   eV

 **************************** Electronic Parameters ****************************
  
 number of  electrons                           :  624.0    
 net charge of system                           :  0.000    
 treating system as non-spin-polarized
 number of bands                                :        374

 ********************* Electronic Minimization Parameters **********************
  
 Method: Treating system as metallic with density mixing treatment of electrons,
         and number of  SD  steps               :          1
         and number of  CG  steps               :          4
  
 total energy / atom convergence tol.           : 0.1000E-04   eV
 eigen-energy convergence tolerance             : 0.1000E-05   eV
 max force / atom convergence tol.              : ignored
 convergence tolerance window                   :          3   cycles
 max. number of SCF cycles                      :        250
 number of fixed-spin iterations                :         10
 smearing scheme                                : Gaussian
 smearing width                                 : 0.1000       eV
 Fermi energy convergence tolerance             : 0.2721E-13   eV
 periodic dipole correction                     : NONE

 ************************** Density Mixing Parameters **************************
  
 density-mixing scheme                          : Pulay
 max. length of mixing history                  :         20
 charge density mixing amplitude                : 0.8000    
 cut-off energy for mixing                      :  500.0       eV

 *********************** Population Analysis Parameters ************************
  
 Population analysis with cutoff                :  3.000       A

 *******************************************************************************
  

                           -------------------------------
                                      Unit Cell
                           -------------------------------
        Real Lattice(A)                      Reciprocal Lattice(1/A)
  11.2210070   0.0003580   0.0000000        0.5599381   0.3232570   0.0000000
  -5.6101940   9.7178460   0.0000000       -0.0000206   0.6465496   0.0000000
   0.0000000   0.0000000   9.0896980        0.0000000   0.0000000   0.6912425

                       Lattice parameters(A)       Cell Angles
                    a =   11.221007          alpha =   90.000000
                    b =   11.220999          beta  =   90.000000
                    c =    9.089698          gamma =  119.996372

                       Current cell volume =  991.195448       A**3
                                   density =    2.753565   AMU/A**3
                                           =    4.572401     g/cm^3

                           -------------------------------
                                     Cell Contents
                           -------------------------------
                         Total number of ions in cell =   64
                      Total number of species in cell =    2
                        Max number of any one species =   48

            xxxxxxxxxxxxxxxxxxxxxxxxxxxxxxxxxxxxxxxxxxxxxxxxxxxxxxxxxxxx
            x  Element    Atom        Fractional coordinates of atoms  x
            x            Number           u          v          w      x
            x----------------------------------------------------------x
            x  Al           1         0.166686   0.333315   0.125002   x 
            x  Al           2         0.666686   0.333315   0.125002   x 
            x  Al           3         0.166686   0.833315   0.125002   x 
            x  Al           4         0.666686   0.833316   0.125002   x 
            x  Al           5         0.166686   0.333315   0.625002   x 
            x  Al           6         0.666686   0.333315   0.625001   x 
            x  Al           7         0.166686   0.833315   0.625002   x 
            x  Al           8         0.666686   0.833315   0.625001   x 
            x  Al           9         0.333314   0.166687   0.375001   x 
            x  Al          10         0.833314   0.166687   0.375001   x 
            x  Al          11         0.333314   0.666687   0.375001   x 
            x  Al          12         0.833314   0.666687   0.375001   x 
            x  Al          13         0.333314   0.166687   0.875001   x 
            x  Al          14         0.833313   0.166687   0.875001   x 
            x  Al          15         0.333314   0.666687   0.875001   x 
            x  Al          16         0.833314   0.666687   0.875001   x 
            x  Ti           1         0.415860   0.330376   0.125694   x 
            x  Ti           2         0.915168   0.330376   0.125002   x 
            x  Ti           3         0.415168   0.830376   0.125002   x 
            x  Ti           4         0.915168   0.830376   0.125002   x 
            x  Ti           5         0.415168   0.330376   0.625001   x 
            x  Ti           6         0.915168   0.330376   0.625001   x 
            x  Ti           7         0.415168   0.830376   0.625001   x 
            x  Ti           8         0.915168   0.830376   0.625001   x 
            x  Ti           9         0.084812   0.415187   0.375001   x 
            x  Ti          10         0.584812   0.415187   0.375001   x 
            x  Ti          11         0.084812   0.915187   0.375001   x 
            x  Ti          12         0.584812   0.915187   0.375001   x 
            x  Ti          13         0.084812   0.415187   0.875001   x 
            x  Ti          14         0.584812   0.415187   0.875001   x 
            x  Ti          15         0.084812   0.915187   0.875001   x 
            x  Ti          16         0.584812   0.915187   0.875001   x 
            x  Ti          17         0.330372   0.415163   0.375001   x 
            x  Ti          18         0.830373   0.415163   0.375001   x 
            x  Ti          19         0.330373   0.915163   0.375001   x 
            x  Ti          20         0.830373   0.915163   0.375001   x 
            x  Ti          21         0.330372   0.415163   0.875001   x 
            x  Ti          22         0.830373   0.415163   0.875001   x 
            x  Ti          23         0.330373   0.915163   0.875001   x 
            x  Ti          24         0.830373   0.915163   0.875001   x 
            x  Ti          25         0.169627   0.084838   0.125002   x 
            x  Ti          26         0.669627   0.084838   0.125002   x 
            x  Ti          27         0.169627   0.584838   0.125002   x 
            x  Ti          28         0.669627   0.584838   0.125002   x 
            x  Ti          29         0.169627   0.084837   0.625002   x 
            x  Ti          30         0.669627   0.084837   0.625001   x 
            x  Ti          31         0.169627   0.584837   0.625002   x 
            x  Ti          32         0.669627   0.584838   0.625001   x 
            x  Ti          33         0.415190   0.084815   0.125002   x 
            x  Ti          34         0.915190   0.084815   0.125002   x 
            x  Ti          35         0.415190   0.584815   0.125002   x 
            x  Ti          36         0.915190   0.584815   0.125002   x 
            x  Ti          37         0.415190   0.084815   0.625002   x 
            x  Ti          38         0.915190   0.084815   0.625001   x 
            x  Ti          39         0.415190   0.584815   0.625001   x 
            x  Ti          40         0.915190   0.584815   0.625001   x 
            x  Ti          41         0.084836   0.169629   0.375001   x 
            x  Ti          42         0.584837   0.169629   0.375001   x 
            x  Ti          43         0.084837   0.669629   0.375001   x 
            x  Ti          44         0.584837   0.669629   0.375001   x 
            x  Ti          45         0.084836   0.169629   0.875001   x 
            x  Ti          46         0.584837   0.169629   0.875001   x 
            x  Ti          47         0.084837   0.669629   0.875001   x 
            x  Ti          48         0.584837   0.669629   0.875001   x 
            xxxxxxxxxxxxxxxxxxxxxxxxxxxxxxxxxxxxxxxxxxxxxxxxxxxxxxxxxxxx


                         No user defined ionic velocities

                           -------------------------------
                                   Details of Species
                           -------------------------------

                               Mass of species in AMU
                                    Al   26.9815400
                                    Ti   47.8670000

                          Electric Quadrupole Moment (Barn)
                                    Al    0.1466000 Isotope 27
                                    Ti    0.3020000 Isotope 47

                          Files used for pseudopotentials:
                                    Al 3|2.2|2.2|1.4|4|5|5|30:31:32U2U2
                                    Ti 3|1.8|9|10|11|30U:40:31:32(qc=5.5)

                           -------------------------------
                              k-Points For BZ Sampling
                           -------------------------------
                       MP grid size for SCF calculation is  3  3  3
                            with an offset of   0.000  0.000  0.000
                       Number of kpoints used =            14

                           -------------------------------
                               Symmetry and Constraints
                           -------------------------------

                      Maximum deviation from symmetry =  0.00000         ANG

                      Number of symmetry operations   =           1
                      Number of ionic constraints     =           3
                      Point group of crystal =     1: C1, 1, 1
                      Space group of crystal =     1: P1, P 1

             Set iprint > 1 for details on symmetry rotations/translations

                         Centre of mass is constrained
             Set iprint > 1 for details of linear ionic constraints

                         Number of cell constraints= 0
                         Cell constraints are:  1 2 3 4 5 6

                         External pressure/stress (GPa)
                          0.00000   0.00000   0.00000
                                    0.00000   0.00000
                                              0.00000
  
+---------------- MEMORY AND SCRATCH DISK ESTIMATES PER PROCESS --------------+
|                                                     Memory          Disk    |
| Baseline code, static data and system overhead      173.0 MB         0.0 MB |
| BLAS internal memory storage                          0.0 MB         0.0 MB |
| Model and support data                              266.2 MB       290.7 MB |
| Electronic energy minimisation requirements         252.2 MB         0.0 MB |
| Force calculation requirements                       15.4 MB         0.0 MB |
| Stress calculation requirements                      17.0 MB         0.0 MB |
|                                               ----------------------------- |
| Approx. total storage required per process          691.4 MB       290.7 MB |
|                                                                             |
| Requirements will fluctuate during execution and may exceed these estimates |
+-----------------------------------------------------------------------------+
Calculating finite basis set correction with  3 cut-off energies.
Calculating total energy with cut-off of  490.000 eV.
------------------------------------------------------------------------ <-- SCF
SCF loop      Energy           Fermi           Energy gain       Timer   <-- SCF
                               energy          per atom          (sec)   <-- SCF
------------------------------------------------------------------------ <-- SCF
Initial  -6.89670471E+004  0.00000000E+000                        27.62  <-- SCF
      1  -7.61735232E+004  1.08440991E+001   1.12601190E+002     119.87  <-- SCF
      2  -7.81539383E+004  9.27344394E+000   3.09439859E+001     184.81  <-- SCF
      3  -7.82720934E+004  8.74393021E+000   1.84617310E+000     259.36  <-- SCF
      4  -7.82737474E+004  8.13997436E+000   2.58435710E-002     328.35  <-- SCF
      5  -7.82709613E+004  8.46219891E+000  -4.35321691E-002     414.52  <-- SCF
      6  -7.82716571E+004  8.44330803E+000   1.08711746E-002     510.20  <-- SCF
      7  -7.82709661E+004  8.41679407E+000  -1.07960575E-002     580.40  <-- SCF
      8  -7.82709819E+004  8.41505006E+000   2.46706647E-004     654.59  <-- SCF
      9  -7.82709711E+004  8.41254628E+000  -1.68732228E-004     718.77  <-- SCF
     10  -7.82709706E+004  8.41260532E+000  -7.53998788E-006     779.95  <-- SCF
     11  -7.82709704E+004  8.41296117E+000  -4.51174750E-006     826.74  <-- SCF
     12  -7.82709704E+004  8.41300336E+000   4.05892681E-008     872.67  <-- SCF
------------------------------------------------------------------------ <-- SCF
 
Final energy, E             =  -78270.75408138     eV
Final free energy (E-TS)    =  -78270.97035555     eV
(energies not corrected for finite basis set)
 
NB est. 0K energy (E-0.5TS)      =  -78270.86221846     eV
 
Calculating total energy with cut-off of  495.000 eV.
------------------------------------------------------------------------ <-- SCF
SCF loop      Energy           Fermi           Energy gain       Timer   <-- SCF
                               energy          per atom          (sec)   <-- SCF
------------------------------------------------------------------------ <-- SCF
Initial  -7.82707538E+004  0.00000000E+000                       886.76  <-- SCF
      1  -7.82709795E+004  8.41322506E+000   3.52710700E-003     967.36  <-- SCF
      2  -7.82709796E+004  8.41322431E+000   1.21833659E-006    1015.60  <-- SCF
      3  -7.82711828E+004  8.41599666E+000   3.17537541E-003    1087.32  <-- SCF
      4  -7.82709695E+004  8.41313484E+000  -3.33410880E-003    1159.02  <-- SCF
      5  -7.82709721E+004  8.41300581E+000   4.15167444E-005    1223.54  <-- SCF
      6  -7.82709718E+004  8.41292394E+000  -5.47802742E-006    1274.92  <-- SCF
      7  -7.82709718E+004  8.41293861E+000  -1.74037643E-007    1320.84  <-- SCF
------------------------------------------------------------------------ <-- SCF
 
Final energy, E             =  -78270.75549608     eV
Final free energy (E-TS)    =  -78270.97175714     eV
(energies not corrected for finite basis set)
 
NB est. 0K energy (E-0.5TS)      =  -78270.86362661     eV
 
Calculating total energy with cut-off of  500.000 eV.
------------------------------------------------------------------------ <-- SCF
SCF loop      Energy           Fermi           Energy gain       Timer   <-- SCF
                               energy          per atom          (sec)   <-- SCF
------------------------------------------------------------------------ <-- SCF
Initial  -7.82707551E+004  0.00000000E+000                      1335.00  <-- SCF
      1  -7.82709851E+004  8.41326839E+000   3.59448030E-003    1418.57  <-- SCF
      2  -7.82709852E+004  8.41326701E+000   1.60918695E-006    1468.72  <-- SCF
      3  -7.82712766E+004  8.41745724E+000   4.55264529E-003    1541.68  <-- SCF
      4  -7.82709705E+004  8.41325212E+000  -4.78334140E-003    1614.26  <-- SCF
      5  -7.82709739E+004  8.41308912E+000   5.36331407E-005    1679.59  <-- SCF
      6  -7.82709735E+004  8.41290052E+000  -5.88275034E-006    1732.82  <-- SCF
      7  -7.82709735E+004  8.41290913E+000  -7.53593259E-007    1779.23  <-- SCF
------------------------------------------------------------------------ <-- SCF
 
Final energy, E             =  -78270.75721507     eV
Final free energy (E-TS)    =  -78270.97347840     eV
(energies not corrected for finite basis set)
 
NB est. 0K energy (E-0.5TS)      =  -78270.86534673     eV
 
 For future reference: finite basis dEtot/dlog(Ecut) =      -0.156231eV
 Total energy corrected for finite basis set =  -78270.973479 eV

 ******************* Unconstrained Forces *******************
 *                                                          *
 *               Cartesian components (eV/A)                *
 * -------------------------------------------------------- *
 *                         x            y            z      *
 *                                                          *
 * Al              1      0.00939     -0.00103      0.00090 *
 * Al              2      0.00942      0.00668      0.00079 *
 * Al              3     -0.00654      0.00282      0.00015 *
 * Al              4     -0.00276      0.00257     -0.00056 *
 * Al              5     -0.00299      0.00136      0.00065 *
 * Al              6     -0.00390      0.00433      0.00073 *
 * Al              7     -0.00497      0.00294      0.00037 *
 * Al              8     -0.00289      0.00242      0.00004 *
 * Al              9      0.00233     -0.00901      0.00758 *
 * Al             10      0.00555     -0.00278     -0.00018 *
 * Al             11      0.00533     -0.00271      0.00004 *
 * Al             12      0.00414     -0.00079     -0.00002 *
 * Al             13      0.00248      0.00376      0.00718 *
 * Al             14      0.00562     -0.00285     -0.00031 *
 * Al             15      0.00526     -0.00320     -0.00006 *
 * Al             16      0.00409     -0.00171     -0.00003 *
 * Ti              1     -0.06316     -0.01100     -0.05468 *
 * Ti              2      0.00200     -0.00988      0.00127 *
 * Ti              3      0.00266     -0.00970     -0.00076 *
 * Ti              4      0.00270     -0.00774      0.00004 *
 * Ti              5     -0.00112     -0.01043      0.01193 *
 * Ti              6      0.00385     -0.01069      0.00171 *
 * Ti              7      0.00354     -0.00967      0.00177 *
 * Ti              8      0.00261     -0.00772      0.00094 *
 * Ti              9      0.01120     -0.00912     -0.00178 *
 * Ti             10      0.01617      0.00387      0.01197 *
 * Ti             11      0.00261     -0.00503     -0.00151 *
 * Ti             12      0.01368     -0.00816     -0.00039 *
 * Ti             13      0.01257     -0.00692      0.00186 *
 * Ti             14      0.00649     -0.00169     -0.00178 *
 * Ti             15      0.00361     -0.00343      0.00143 *
 * Ti             16      0.01318     -0.00703     -0.00064 *
 * Ti             17     -0.00909     -0.00204     -0.00014 *
 * Ti             18     -0.00739      0.00171      0.00157 *
 * Ti             19     -0.01276     -0.00263      0.00173 *
 * Ti             20     -0.00444     -0.00299     -0.00035 *
 * Ti             21      0.00053     -0.00835      0.00972 *
 * Ti             22     -0.00984      0.00409     -0.00162 *
 * Ti             23     -0.01365     -0.00136     -0.00173 *
 * Ti             24     -0.00460     -0.00224     -0.00082 *
 * Ti             25      0.01314      0.00296      0.00484 *
 * Ti             26      0.01520     -0.00040     -0.00118 *
 * Ti             27      0.00853      0.00029     -0.00138 *
 * Ti             28      0.01718      0.00579      0.00092 *
 * Ti             29      0.00709     -0.00123     -0.00073 *
 * Ti             30      0.01454      0.00035      0.00132 *
 * Ti             31      0.00964      0.00121      0.00160 *
 * Ti             32      0.01319      0.00612     -0.00091 *
 * Ti             33     -0.00825     -0.00045      0.00479 *
 * Ti             34     -0.00332      0.00137     -0.00072 *
 * Ti             35     -0.00202      0.00608      0.00151 *
 * Ti             36     -0.01185      0.01159     -0.00131 *
 * Ti             37     -0.01480      0.00483     -0.00059 *
 * Ti             38     -0.00356      0.00078      0.00092 *
 * Ti             39     -0.00305      0.00433     -0.00145 *
 * Ti             40     -0.01276      0.01041      0.00148 *
 * Ti             41     -0.00260      0.00295      0.00127 *
 * Ti             42     -0.00852      0.01154     -0.00273 *
 * Ti             43     -0.00896      0.01181     -0.00010 *
 * Ti             44     -0.00000      0.00967      0.00019 *
 * Ti             45     -0.00625      0.00262     -0.00366 *
 * Ti             46     -0.00508      0.01118      0.00023 *
 * Ti             47     -0.00881      0.01004      0.00053 *
 * Ti             48      0.00043      0.01147     -0.00178 *
 *                                                          *
 ************************************************************

 ******************** Constrained Forces ********************
 *                                                          *
 *               Cartesian components (eV/A)                *
 * -------------------------------------------------------- *
 *                         x            y            z      *
 *                                                          *
 * Al              1      0.00939     -0.00103      0.00090 *
 * Al              2      0.00942      0.00668      0.00079 *
 * Al              3     -0.00654      0.00282      0.00015 *
 * Al              4     -0.00276      0.00257     -0.00056 *
 * Al              5     -0.00299      0.00136      0.00065 *
 * Al              6     -0.00390      0.00433      0.00073 *
 * Al              7     -0.00497      0.00294      0.00037 *
 * Al              8     -0.00289      0.00242      0.00004 *
 * Al              9      0.00233     -0.00901      0.00758 *
 * Al             10      0.00555     -0.00278     -0.00018 *
 * Al             11      0.00533     -0.00271      0.00004 *
 * Al             12      0.00414     -0.00079     -0.00002 *
 * Al             13      0.00248      0.00376      0.00718 *
 * Al             14      0.00562     -0.00285     -0.00031 *
 * Al             15      0.00526     -0.00320     -0.00006 *
 * Al             16      0.00409     -0.00171     -0.00003 *
 * Ti              1     -0.06316     -0.01100     -0.05468 *
 * Ti              2      0.00200     -0.00988      0.00127 *
 * Ti              3      0.00266     -0.00970     -0.00076 *
 * Ti              4      0.00270     -0.00774      0.00004 *
 * Ti              5     -0.00112     -0.01043      0.01193 *
 * Ti              6      0.00385     -0.01069      0.00171 *
 * Ti              7      0.00354     -0.00967      0.00177 *
 * Ti              8      0.00261     -0.00772      0.00094 *
 * Ti              9      0.01120     -0.00912     -0.00178 *
 * Ti             10      0.01617      0.00387      0.01197 *
 * Ti             11      0.00261     -0.00503     -0.00151 *
 * Ti             12      0.01368     -0.00816     -0.00039 *
 * Ti             13      0.01257     -0.00692      0.00186 *
 * Ti             14      0.00649     -0.00169     -0.00178 *
 * Ti             15      0.00361     -0.00343      0.00143 *
 * Ti             16      0.01318     -0.00703     -0.00064 *
 * Ti             17     -0.00909     -0.00204     -0.00014 *
 * Ti             18     -0.00739      0.00171      0.00157 *
 * Ti             19     -0.01276     -0.00263      0.00173 *
 * Ti             20     -0.00444     -0.00299     -0.00035 *
 * Ti             21      0.00053     -0.00835      0.00972 *
 * Ti             22     -0.00984      0.00409     -0.00162 *
 * Ti             23     -0.01365     -0.00136     -0.00173 *
 * Ti             24     -0.00460     -0.00224     -0.00082 *
 * Ti             25      0.01314      0.00296      0.00484 *
 * Ti             26      0.01520     -0.00040     -0.00118 *
 * Ti             27      0.00853      0.00029     -0.00138 *
 * Ti             28      0.01718      0.00579      0.00092 *
 * Ti             29      0.00709     -0.00123     -0.00073 *
 * Ti             30      0.01454      0.00035      0.00132 *
 * Ti             31      0.00964      0.00121      0.00160 *
 * Ti             32      0.01319      0.00612     -0.00091 *
 * Ti             33     -0.00825     -0.00045      0.00479 *
 * Ti             34     -0.00332      0.00137     -0.00072 *
 * Ti             35     -0.00202      0.00608      0.00151 *
 * Ti             36     -0.01185      0.01159     -0.00131 *
 * Ti             37     -0.01480      0.00483     -0.00059 *
 * Ti             38     -0.00356      0.00078      0.00092 *
 * Ti             39     -0.00305      0.00433     -0.00145 *
 * Ti             40     -0.01276      0.01041      0.00148 *
 * Ti             41     -0.00260      0.00295      0.00127 *
 * Ti             42     -0.00852      0.01154     -0.00273 *
 * Ti             43     -0.00896      0.01181     -0.00010 *
 * Ti             44     -0.00000      0.00967      0.00019 *
 * Ti             45     -0.00625      0.00262     -0.00366 *
 * Ti             46     -0.00508      0.01118      0.00023 *
 * Ti             47     -0.00881      0.01004      0.00053 *
 * Ti             48      0.00043      0.01147     -0.00178 *
 *                                                          *
 ************************************************************

 ***************** Stress Tensor *****************
 *                                               *
 *          Cartesian components (GPa)           *
 * --------------------------------------------- *
 *             x             y             z     *
 *                                               *
 *  x     -0.654802      0.001513      0.000040  *
 *  y      0.001513     -0.651856      0.004801  *
 *  z      0.000040      0.004801     -1.326627  *
 *                                               *
 *  Pressure:    0.8778                          *
 *                                               *
 *************************************************

 Pseudo atomic calculation performed for Al 3s2 3p1

 Converged in 15 iterations to a total energy of -105.5951 eV


 Pseudo atomic calculation performed for Ti 3s2 3p6 3d2 4s2

 Converged in 31 iterations to a total energy of -1585.9719 eV

Charge spilling parameter for spin component 1 = 0.13%

     Atomic Populations (Mulliken)
     -----------------------------
Species          Ion     s      p      d      f     Total  Charge (e)
=====================================================================
  Al              1     0.94   2.11   0.00   0.00   3.05    -0.05
  Al              2     0.93   2.11   0.00   0.00   3.05    -0.05
  Al              3     0.94   2.11   0.00   0.00   3.05    -0.05
  Al              4     0.94   2.11   0.00   0.00   3.05    -0.05
  Al              5     0.94   2.11   0.00   0.00   3.05    -0.05
  Al              6     0.94   2.11   0.00   0.00   3.05    -0.05
  Al              7     0.94   2.11   0.00   0.00   3.05    -0.05
  Al              8     0.94   2.11   0.00   0.00   3.05    -0.05
  Al              9     0.93   2.11   0.00   0.00   3.05    -0.05
  Al             10     0.94   2.11   0.00   0.00   3.05    -0.05
  Al             11     0.94   2.11   0.00   0.00   3.05    -0.05
  Al             12     0.94   2.11   0.00   0.00   3.05    -0.05
  Al             13     0.94   2.11   0.00   0.00   3.05    -0.05
  Al             14     0.94   2.11   0.00   0.00   3.05    -0.05
  Al             15     0.94   2.11   0.00   0.00   3.05    -0.05
  Al             16     0.94   2.11   0.00   0.00   3.05    -0.05
  Ti              1     2.32   6.84   2.83   0.00  11.98     0.02
  Ti              2     2.32   6.84   2.83   0.00  11.98     0.02
  Ti              3     2.32   6.84   2.83   0.00  11.99     0.01
  Ti              4     2.32   6.84   2.83   0.00  11.98     0.02
  Ti              5     2.32   6.84   2.83   0.00  11.98     0.02
  Ti              6     2.32   6.84   2.83   0.00  11.98     0.02
  Ti              7     2.32   6.84   2.83   0.00  11.99     0.01
  Ti              8     2.32   6.84   2.83   0.00  11.98     0.02
  Ti              9     2.32   6.84   2.83   0.00  11.99     0.01
  Ti             10     2.32   6.84   2.83   0.00  11.99     0.01
  Ti             11     2.32   6.84   2.83   0.00  11.98     0.02
  Ti             12     2.32   6.84   2.83   0.00  11.99     0.01
  Ti             13     2.32   6.84   2.83   0.00  11.98     0.02
  Ti             14     2.32   6.84   2.83   0.00  11.98     0.02
  Ti             15     2.32   6.84   2.83   0.00  11.98     0.02
  Ti             16     2.32   6.84   2.83   0.00  11.98     0.02
  Ti             17     2.32   6.84   2.83   0.00  11.98     0.02
  Ti             18     2.32   6.84   2.83   0.00  11.99     0.01
  Ti             19     2.32   6.84   2.83   0.00  11.99     0.01
  Ti             20     2.32   6.84   2.83   0.00  11.98     0.02
  Ti             21     2.32   6.84   2.83   0.00  11.98     0.02
  Ti             22     2.32   6.84   2.83   0.00  11.99     0.01
  Ti             23     2.32   6.84   2.83   0.00  11.99     0.01
  Ti             24     2.32   6.84   2.83   0.00  11.98     0.02
  Ti             25     2.32   6.84   2.83   0.00  11.98     0.02
  Ti             26     2.32   6.84   2.83   0.00  11.99     0.01
  Ti             27     2.32   6.84   2.83   0.00  11.99     0.01
  Ti             28     2.32   6.84   2.83   0.00  11.98     0.02
  Ti             29     2.32   6.84   2.83   0.00  11.98     0.02
  Ti             30     2.32   6.84   2.83   0.00  11.99     0.01
  Ti             31     2.32   6.84   2.83   0.00  11.99     0.01
  Ti             32     2.32   6.84   2.83   0.00  11.98     0.02
  Ti             33     2.32   6.84   2.83   0.00  11.99     0.01
  Ti             34     2.32   6.84   2.83   0.00  11.98     0.02
  Ti             35     2.32   6.84   2.83   0.00  11.99     0.01
  Ti             36     2.32   6.84   2.83   0.00  11.98     0.02
  Ti             37     2.32   6.84   2.83   0.00  11.98     0.02
  Ti             38     2.32   6.84   2.83   0.00  11.98     0.02
  Ti             39     2.32   6.84   2.83   0.00  11.98     0.02
  Ti             40     2.32   6.84   2.83   0.00  11.98     0.02
  Ti             41     2.32   6.84   2.83   0.00  11.98     0.02
  Ti             42     2.32   6.84   2.83   0.00  11.99     0.01
  Ti             43     2.32   6.84   2.83   0.00  11.99     0.01
  Ti             44     2.32   6.84   2.83   0.00  11.98     0.02
  Ti             45     2.32   6.84   2.83   0.00  11.98     0.02
  Ti             46     2.32   6.84   2.83   0.00  11.99     0.01
  Ti             47     2.32   6.84   2.83   0.00  11.98     0.02
  Ti             48     2.32   6.84   2.83   0.00  11.98     0.02
=====================================================================

                 Bond                   Population      Length (A)
======================================================================
             Ti 1  -- Ti 33                 -0.02        2.75170
             Ti 23 -- Ti 47                 -0.02        2.75530
             Ti 19 -- Ti 43                 -0.02        2.75530
             Ti 22 -- Ti 46                 -0.02        2.75530
             Ti 21 -- Ti 45                 -0.02        2.75530
             Ti 18 -- Ti 42                 -0.02        2.75530
             Ti 17 -- Ti 41                 -0.02        2.75530
             Ti 24 -- Ti 48                 -0.02        2.75530
             Ti 20 -- Ti 44                 -0.02        2.75530
             Ti 8  -- Ti 32                 -0.02        2.75535
             Ti 4  -- Ti 28                 -0.02        2.75535
             Ti 2  -- Ti 26                 -0.02        2.75535
             Ti 3  -- Ti 27                 -0.02        2.75535
             Ti 6  -- Ti 30                 -0.02        2.75535
             Ti 7  -- Ti 31                 -0.02        2.75535
             Ti 5  -- Ti 29                 -0.02        2.75535
             Ti 12 -- Ti 44                 -0.02        2.75554
             Ti 9  -- Ti 41                 -0.02        2.75554
             Ti 14 -- Ti 46                 -0.02        2.75554
             Ti 10 -- Ti 42                 -0.02        2.75554
             Ti 15 -- Ti 47                 -0.02        2.75554
             Ti 11 -- Ti 43                 -0.02        2.75554
             Ti 16 -- Ti 48                 -0.02        2.75554
             Ti 13 -- Ti 45                 -0.02        2.75554
             Ti 8  -- Ti 40                 -0.02        2.75557
             Ti 4  -- Ti 36                 -0.02        2.75557
             Ti 3  -- Ti 35                 -0.02        2.75557
             Ti 6  -- Ti 38                 -0.02        2.75557
             Ti 2  -- Ti 34                 -0.02        2.75557
             Ti 5  -- Ti 37                 -0.02        2.75557
             Ti 7  -- Ti 39                 -0.02        2.75557
             Ti 9  -- Ti 17                 -0.02        2.75557
             Ti 12 -- Ti 20                 -0.02        2.75557
             Ti 13 -- Ti 21                 -0.02        2.75557
             Ti 15 -- Ti 23                 -0.02        2.75557
             Ti 14 -- Ti 22                 -0.02        2.75557
             Ti 11 -- Ti 19                 -0.02        2.75557
             Ti 10 -- Ti 18                 -0.02        2.75557
             Ti 16 -- Ti 24                 -0.02        2.75557
             Ti 29 -- Ti 37                 -0.02        2.75559
             Ti 30 -- Ti 38                 -0.02        2.75559
             Ti 32 -- Ti 40                 -0.02        2.75559
             Ti 28 -- Ti 36                 -0.02        2.75559
             Ti 26 -- Ti 34                 -0.02        2.75559
             Ti 25 -- Ti 33                 -0.02        2.75559
             Ti 31 -- Ti 39                 -0.02        2.75559
             Ti 27 -- Ti 35                 -0.02        2.75559
             Ti 1  -- Ti 25                 -0.02        2.75925
             Al 9  -- Ti 1                   0.21        2.76873
             Al 8  -- Ti 44                  0.21        2.77385
             Al 6  -- Ti 42                  0.21        2.77385
             Al 7  -- Ti 47                  0.21        2.77385
             Al 3  -- Ti 43                  0.21        2.77385
             Al 2  -- Ti 42                  0.21        2.77385
             Al 5  -- Ti 45                  0.21        2.77385
             Al 1  -- Ti 41                  0.21        2.77385
             Al 4  -- Ti 44                  0.21        2.77385
             Al 4  -- Ti 20                  0.21        2.77385
             Al 3  -- Ti 47                  0.21        2.77385
             Al 2  -- Ti 46                  0.21        2.77385
             Al 1  -- Ti 45                  0.21        2.77385
             Al 8  -- Ti 48                  0.21        2.77385
             Al 7  -- Ti 43                  0.21        2.77385
             Al 6  -- Ti 46                  0.21        2.77385
             Al 5  -- Ti 41                  0.21        2.77385
             Al 12 -- Ti 32                  0.21        2.77385
             Al 12 -- Ti 28                  0.21        2.77385
             Al 10 -- Ti 26                  0.21        2.77385
             Al 11 -- Ti 27                  0.21        2.77385
             Al 9  -- Ti 25                  0.21        2.77385
             Al 6  -- Ti 18                  0.21        2.77385
             Al 7  -- Ti 23                  0.21        2.77385
             Al 5  -- Ti 21                  0.21        2.77385
             Al 3  -- Ti 19                  0.21        2.77385
             Al 1  -- Ti 17                  0.21        2.77385
             Al 8  -- Ti 20                  0.21        2.77385
             Al 2  -- Ti 18                  0.21        2.77385
             Al 10 -- Ti 30                  0.21        2.77386
             Al 13 -- Ti 29                  0.21        2.77386
             Al 15 -- Ti 31                  0.21        2.77386
             Al 14 -- Ti 26                  0.21        2.77386
             Al 4  -- Ti 48                  0.21        2.77386
             Al 4  -- Ti 24                  0.21        2.77386
             Al 14 -- Ti 30                  0.21        2.77386
             Al 16 -- Ti 28                  0.21        2.77386
             Al 15 -- Ti 27                  0.21        2.77386
             Al 13 -- Ti 25                  0.21        2.77386
             Al 16 -- Ti 32                  0.21        2.77386
             Al 3  -- Ti 23                  0.21        2.77386
             Al 2  -- Ti 22                  0.21        2.77386
             Al 1  -- Ti 21                  0.21        2.77386
             Al 7  -- Ti 19                  0.21        2.77386
             Al 5  -- Ti 17                  0.21        2.77386
             Al 6  -- Ti 22                  0.21        2.77386
             Al 8  -- Ti 24                  0.21        2.77386
             Al 9  -- Ti 29                  0.21        2.77386
             Al 11 -- Ti 31                  0.21        2.77386
             Al 12 -- Ti 8                   0.21        2.77387
             Al 11 -- Ti 7                   0.21        2.77387
             Al 9  -- Ti 5                   0.21        2.77387
             Al 12 -- Ti 4                   0.21        2.77387
             Al 10 -- Ti 6                   0.21        2.77387
             Al 10 -- Ti 2                   0.21        2.77387
             Al 11 -- Ti 3                   0.21        2.77387
             Al 16 -- Ti 4                   0.21        2.77387
             Al 16 -- Ti 8                   0.21        2.77387
             Al 15 -- Ti 7                   0.21        2.77387
             Al 13 -- Ti 5                   0.21        2.77387
             Al 15 -- Ti 3                   0.21        2.77387
             Al 14 -- Ti 2                   0.21        2.77387
             Al 14 -- Ti 6                   0.21        2.77387
             Al 4  -- Ti 12                  0.21        2.77413
             Al 1  -- Ti 9                   0.21        2.77413
             Al 8  -- Ti 12                  0.21        2.77413
             Al 6  -- Ti 10                  0.21        2.77413
             Al 5  -- Ti 13                  0.21        2.77413
             Al 2  -- Ti 10                  0.21        2.77413
             Al 7  -- Ti 15                  0.21        2.77413
             Al 3  -- Ti 11                  0.21        2.77413
             Al 5  -- Ti 9                   0.21        2.77413
             Al 4  -- Ti 16                  0.21        2.77413
             Al 2  -- Ti 14                  0.21        2.77413
             Al 1  -- Ti 13                  0.21        2.77413
             Al 3  -- Ti 15                  0.21        2.77413
             Al 6  -- Ti 14                  0.21        2.77413
             Al 7  -- Ti 11                  0.21        2.77413
             Al 8  -- Ti 16                  0.21        2.77413
             Al 12 -- Ti 40                  0.21        2.77415
             Al 12 -- Ti 36                  0.21        2.77415
             Al 10 -- Ti 38                  0.21        2.77415
             Al 13 -- Ti 37                  0.21        2.77415
             Al 10 -- Ti 34                  0.21        2.77415
             Al 9  -- Ti 33                  0.21        2.77415
             Al 11 -- Ti 39                  0.21        2.77415
             Al 11 -- Ti 35                  0.21        2.77415
             Al 16 -- Ti 36                  0.21        2.77415
             Al 13 -- Ti 33                  0.21        2.77415
             Al 16 -- Ti 40                  0.21        2.77415
             Al 9  -- Ti 37                  0.21        2.77415
             Al 14 -- Ti 34                  0.21        2.77415
             Al 15 -- Ti 35                  0.21        2.77415
             Al 14 -- Ti 38                  0.21        2.77415
             Al 15 -- Ti 39                  0.21        2.77415
             Al 13 -- Ti 1                   0.21        2.77904
             Al 2  -- Ti 1                   0.23        2.79818
             Ti 1  -- Ti 10                  0.04        2.79842
             Al 15 -- Ti 23                  0.23        2.80479
             Al 11 -- Ti 19                  0.23        2.80479
             Al 14 -- Ti 22                  0.23        2.80479
             Al 13 -- Ti 21                  0.23        2.80479
             Al 9  -- Ti 17                  0.23        2.80479
             Al 16 -- Ti 24                  0.23        2.80479
             Al 12 -- Ti 20                  0.23        2.80479
             Al 10 -- Ti 18                  0.23        2.80479
             Al 15 -- Ti 47                  0.23        2.80481
             Al 11 -- Ti 43                  0.23        2.80481
             Al 14 -- Ti 46                  0.23        2.80481
             Al 13 -- Ti 45                  0.23        2.80481
             Al 9  -- Ti 41                  0.23        2.80481
             Al 16 -- Ti 48                  0.23        2.80481
             Al 12 -- Ti 44                  0.23        2.80481
             Al 10 -- Ti 42                  0.23        2.80481
             Al 3  -- Ti 27                  0.23        2.80481
             Al 8  -- Ti 32                  0.23        2.80481
             Al 1  -- Ti 25                  0.23        2.80481
             Al 2  -- Ti 26                  0.23        2.80481
             Al 7  -- Ti 31                  0.23        2.80482
             Al 6  -- Ti 30                  0.23        2.80482
             Al 5  -- Ti 29                  0.23        2.80482
             Al 4  -- Ti 28                  0.22        2.80482
             Al 7  -- Ti 7                   0.23        2.80485
             Al 6  -- Ti 6                   0.23        2.80485
             Al 2  -- Ti 2                   0.23        2.80485
             Al 8  -- Ti 8                   0.23        2.80485
             Al 3  -- Ti 3                   0.22        2.80485
             Al 5  -- Ti 5                   0.23        2.80485
             Al 4  -- Ti 4                   0.23        2.80485
             Al 1  -- Ti 34                  0.23        2.80554
             Al 8  -- Ti 39                  0.23        2.80554
             Al 5  -- Ti 38                  0.23        2.80554
             Al 3  -- Ti 36                  0.22        2.80554
             Al 2  -- Ti 33                  0.22        2.80554
             Al 7  -- Ti 40                  0.23        2.80554
             Al 6  -- Ti 37                  0.23        2.80554
             Al 4  -- Ti 35                  0.23        2.80554
             Al 16 -- Ti 15                  0.23        2.80555
             Al 15 -- Ti 16                  0.23        2.80555
             Al 13 -- Ti 14                  0.23        2.80555
             Al 12 -- Ti 11                  0.23        2.80555
             Al 9  -- Ti 10                  0.22        2.80555
             Al 10 -- Ti 9                   0.23        2.80555
             Al 14 -- Ti 13                  0.23        2.80555
             Al 11 -- Ti 12                  0.23        2.80555
             Al 13 -- Ti 15                  0.23        2.80556
             Al 11 -- Ti 9                   0.23        2.80556
             Al 9  -- Ti 11                  0.23        2.80556
             Al 14 -- Ti 16                  0.23        2.80556
             Al 10 -- Ti 12                  0.23        2.80556
             Al 15 -- Ti 13                  0.23        2.80556
             Al 16 -- Ti 14                  0.23        2.80556
             Al 12 -- Ti 10                  0.23        2.80556
             Al 4  -- Ti 34                  0.23        2.80557
             Al 7  -- Ti 37                  0.23        2.80558
             Al 3  -- Ti 33                  0.22        2.80558
             Al 6  -- Ti 40                  0.23        2.80558
             Al 2  -- Ti 36                  0.23        2.80558
             Al 8  -- Ti 38                  0.23        2.80558
             Al 1  -- Ti 35                  0.23        2.80558
             Al 5  -- Ti 39                  0.23        2.80558
             Ti 1  -- Ti 17                  0.04        2.80592
             Al 1  -- Ti 2                   0.22        2.80595
             Al 5  -- Ti 6                   0.23        2.80595
             Al 4  -- Ti 3                   0.23        2.80595
             Al 3  -- Ti 4                   0.23        2.80595
             Al 6  -- Ti 5                   0.23        2.80595
             Al 8  -- Ti 7                   0.23        2.80595
             Al 7  -- Ti 8                   0.23        2.80595
             Al 4  -- Ti 26                  0.23        2.80597
             Al 8  -- Ti 30                  0.23        2.80597
             Al 5  -- Ti 31                  0.23        2.80597
             Al 7  -- Ti 29                  0.23        2.80598
             Al 6  -- Ti 32                  0.22        2.80598
             Al 2  -- Ti 28                  0.22        2.80598
             Al 1  -- Ti 27                  0.23        2.80598
             Al 3  -- Ti 25                  0.23        2.80598
             Al 10 -- Ti 41                  0.23        2.80598
             Al 16 -- Ti 47                  0.23        2.80598
             Al 12 -- Ti 43                  0.23        2.80598
             Al 14 -- Ti 45                  0.23        2.80598
             Al 13 -- Ti 46                  0.23        2.80598
             Al 9  -- Ti 42                  0.22        2.80598
             Al 15 -- Ti 48                  0.23        2.80598
             Al 11 -- Ti 44                  0.23        2.80598
             Al 10 -- Ti 20                  0.23        2.80600
             Al 16 -- Ti 22                  0.23        2.80600
             Al 12 -- Ti 18                  0.23        2.80600
             Al 15 -- Ti 21                  0.23        2.80600
             Al 11 -- Ti 17                  0.23        2.80600
             Al 14 -- Ti 24                  0.23        2.80600
             Al 13 -- Ti 23                  0.23        2.80600
             Al 9  -- Ti 19                  0.23        2.80600
             Ti 7  -- Ti 19                  0.04        2.80705
             Ti 27 -- Ti 43                  0.04        2.80705
             Ti 31 -- Ti 47                  0.04        2.80705
             Ti 6  -- Ti 18                  0.04        2.80705
             Ti 3  -- Ti 19                  0.04        2.80705
             Ti 2  -- Ti 18                  0.04        2.80705
             Ti 8  -- Ti 20                  0.04        2.80705
             Ti 5  -- Ti 17                  0.04        2.80705
             Ti 4  -- Ti 20                  0.04        2.80705
             Ti 32 -- Ti 44                  0.04        2.80705
             Ti 25 -- Ti 41                  0.04        2.80705
             Ti 28 -- Ti 44                  0.04        2.80705
             Ti 26 -- Ti 42                  0.04        2.80705
             Ti 7  -- Ti 23                  0.04        2.80705
             Ti 30 -- Ti 42                  0.04        2.80705
             Ti 29 -- Ti 45                  0.04        2.80705
             Ti 27 -- Ti 47                  0.04        2.80705
             Ti 31 -- Ti 43                  0.04        2.80705
             Ti 3  -- Ti 23                  0.04        2.80705
             Ti 2  -- Ti 22                  0.04        2.80705
             Ti 6  -- Ti 22                  0.04        2.80705
             Ti 4  -- Ti 24                  0.04        2.80705
             Ti 8  -- Ti 24                  0.04        2.80705
             Ti 5  -- Ti 21                  0.04        2.80705
             Ti 25 -- Ti 45                  0.04        2.80705
             Ti 28 -- Ti 48                  0.04        2.80705
             Ti 26 -- Ti 46                  0.04        2.80705
             Ti 32 -- Ti 48                  0.04        2.80705
             Ti 29 -- Ti 41                  0.04        2.80705
             Ti 30 -- Ti 46                  0.04        2.80705
             Ti 6  -- Ti 9                   0.04        2.80746
             Ti 5  -- Ti 10                  0.04        2.80746
             Ti 3  -- Ti 12                  0.04        2.80746
             Ti 8  -- Ti 11                  0.04        2.80746
             Ti 4  -- Ti 11                  0.04        2.80746
             Ti 2  -- Ti 9                   0.04        2.80746
             Ti 3  -- Ti 16                  0.04        2.80746
             Ti 2  -- Ti 13                  0.04        2.80746
             Ti 6  -- Ti 13                  0.04        2.80746
             Ti 7  -- Ti 12                  0.04        2.80746
             Ti 4  -- Ti 15                  0.04        2.80746
             Ti 8  -- Ti 15                  0.04        2.80746
             Ti 7  -- Ti 16                  0.04        2.80746
             Ti 5  -- Ti 14                  0.04        2.80746
             Ti 38 -- Ti 41                  0.04        2.80747
             Ti 39 -- Ti 44                  0.04        2.80747
             Ti 34 -- Ti 41                  0.04        2.80747
             Ti 35 -- Ti 44                  0.04        2.80747
             Ti 40 -- Ti 43                  0.04        2.80747
             Ti 36 -- Ti 43                  0.04        2.80747
             Ti 37 -- Ti 46                  0.04        2.80747
             Ti 33 -- Ti 42                  0.04        2.80747
             Ti 34 -- Ti 45                  0.04        2.80747
             Ti 38 -- Ti 45                  0.04        2.80747
             Ti 35 -- Ti 48                  0.04        2.80747
             Ti 39 -- Ti 48                  0.04        2.80747
             Ti 36 -- Ti 47                  0.04        2.80747
             Ti 33 -- Ti 46                  0.04        2.80747
             Ti 40 -- Ti 47                  0.04        2.80747
             Ti 37 -- Ti 42                  0.04        2.80747
             Ti 13 -- Ti 31                  0.04        2.80749
             Ti 15 -- Ti 29                  0.04        2.80749
             Ti 12 -- Ti 30                  0.04        2.80749
             Ti 10 -- Ti 32                  0.04        2.80749
             Ti 10 -- Ti 28                  0.04        2.80749
             Ti 11 -- Ti 25                  0.04        2.80749
             Ti 12 -- Ti 26                  0.04        2.80749
             Ti 9  -- Ti 27                  0.04        2.80749
             Ti 16 -- Ti 30                  0.04        2.80749
             Ti 11 -- Ti 29                  0.04        2.80749
             Ti 9  -- Ti 31                  0.04        2.80749
             Ti 16 -- Ti 26                  0.04        2.80749
             Ti 13 -- Ti 27                  0.04        2.80749
             Ti 14 -- Ti 28                  0.04        2.80749
             Ti 14 -- Ti 32                  0.04        2.80749
             Ti 15 -- Ti 25                  0.04        2.80749
             Ti 17 -- Ti 39                  0.04        2.80750
             Ti 17 -- Ti 35                  0.04        2.80750
             Ti 20 -- Ti 38                  0.04        2.80750
             Ti 20 -- Ti 34                  0.04        2.80750
             Ti 18 -- Ti 40                  0.04        2.80750
             Ti 18 -- Ti 36                  0.04        2.80750
             Ti 23 -- Ti 37                  0.04        2.80750
             Ti 19 -- Ti 33                  0.04        2.80750
             Ti 21 -- Ti 35                  0.04        2.80750
             Ti 21 -- Ti 39                  0.04        2.80750
             Ti 24 -- Ti 34                  0.04        2.80750
             Ti 24 -- Ti 38                  0.04        2.80750
             Ti 22 -- Ti 36                  0.04        2.80750
             Ti 22 -- Ti 40                  0.04        2.80750
             Ti 23 -- Ti 33                  0.04        2.80750
             Ti 19 -- Ti 37                  0.04        2.80750
             Ti 1  -- Ti 14                  0.04        2.80862
             Al 1  -- Ti 1                   0.22        2.81263
             Ti 1  -- Ti 21                  0.04        2.81610
             Ti 1  -- Ti 28                  0.10        2.85159
             Ti 29 -- Ti 38                  0.10        2.85491
             Ti 31 -- Ti 40                  0.10        2.85491
             Ti 25 -- Ti 34                  0.10        2.85491
             Ti 27 -- Ti 36                  0.10        2.85491
             Ti 32 -- Ti 39                  0.10        2.85491
             Ti 28 -- Ti 35                  0.10        2.85491
             Ti 30 -- Ti 37                  0.10        2.85491
             Ti 26 -- Ti 33                  0.10        2.85491
             Ti 13 -- Ti 22                  0.10        2.85493
             Ti 16 -- Ti 23                  0.10        2.85493
             Ti 15 -- Ti 24                  0.10        2.85493
             Ti 12 -- Ti 19                  0.10        2.85493
             Ti 11 -- Ti 20                  0.10        2.85493
             Ti 9  -- Ti 18                  0.10        2.85493
             Ti 14 -- Ti 21                  0.10        2.85493
             Ti 10 -- Ti 17                  0.10        2.85493
             Ti 5  -- Ti 39                  0.09        2.85493
             Ti 8  -- Ti 38                  0.10        2.85493
             Ti 4  -- Ti 34                  0.10        2.85493
             Ti 6  -- Ti 40                  0.10        2.85493
             Ti 2  -- Ti 36                  0.10        2.85493
             Ti 7  -- Ti 37                  0.10        2.85493
             Ti 3  -- Ti 33                  0.10        2.85493
             Ti 13 -- Ti 47                  0.10        2.85496
             Ti 9  -- Ti 43                  0.10        2.85496
             Ti 16 -- Ti 46                  0.10        2.85496
             Ti 14 -- Ti 48                  0.10        2.85496
             Ti 10 -- Ti 44                  0.09        2.85496
             Ti 15 -- Ti 45                  0.10        2.85496
             Ti 11 -- Ti 41                  0.10        2.85496
             Ti 12 -- Ti 42                  0.10        2.85496
             Ti 6  -- Ti 31                  0.10        2.85546
             Ti 8  -- Ti 29                  0.10        2.85546
             Ti 7  -- Ti 30                  0.10        2.85546
             Ti 2  -- Ti 27                  0.10        2.85546
             Ti 4  -- Ti 25                  0.10        2.85546
             Ti 3  -- Ti 26                  0.10        2.85546
             Ti 5  -- Ti 32                  0.10        2.85546
             Ti 24 -- Ti 45                  0.10        2.85551
             Ti 20 -- Ti 41                  0.10        2.85551
             Ti 23 -- Ti 46                  0.10        2.85551
             Ti 19 -- Ti 42                  0.10        2.85551
             Ti 22 -- Ti 47                  0.10        2.85551
             Ti 18 -- Ti 43                  0.10        2.85551
             Ti 21 -- Ti 48                  0.10        2.85551
             Ti 17 -- Ti 44                  0.10        2.85551
             Ti 1  -- Ti 35                  0.10        2.85883
======================================================================

 
 A BibTeX formatted list of references used in this run has been written to 
 castep.bib
 
Initialisation time =     17.35 s
Calculation time    =   2120.66 s
Finalisation time   =      0.08 s
Total time          =   2138.09 s
Peak Memory Use     = 1958096 kB
  
Overall parallel efficiency rating: Very good (87%)                             
  
Data was distributed by:-
G-vector (3-way); efficiency rating: Very good (87%)                            
k-point (14-way); efficiency rating: Excellent (99%)                            
 +-------------------------------------------------+
 |                                                 |
 |      CCC   AA    SSS  TTTTT  EEEEE  PPPP        |
 |     C     A  A  S       T    E      P   P       |
 |     C     AAAA   SS     T    EEE    PPPP        |
 |     C     A  A     S    T    E      P           |
 |      CCC  A  A  SSS     T    EEEEE  P           |
 |                                                 |
 +-------------------------------------------------+
 |                                                 |
 | Welcome to Academic Release CASTEP version 17.21|          
 | Ab Initio Total Energy Program                  |
 |                                                 |
 | Authors:                                        |
 | M. Segall, M. Probert, C. Pickard, P. Hasnip,   |
 | S. Clark, K. Refson, J. R. Yates, M. Payne      |
 |                                                 |
 | Contributors:                                   |
 | P. Lindan, P. Haynes, J. White, V. Milman,      |
 | N. Govind, M. Gibson, P. Tulip, V. Cocula,      |
 | B. Montanari, D. Quigley, M. Glover,            |
 | L. Bernasconi, A. Perlov, M. Plummer,           |
 | E. McNellis, J. Meyer, J. Gale, D. Jochym       |
 | J. Aarons, B. Walker, R. Gillen, D. Jones       |
 | T. Green, I. J. Bush, C. J. Armstrong,          |
 | E. J. Higgins, E. L. Brown, M. S. McFly,        |
 | J. Wilkins, B-C. Shih, P. J. P. Byrne           |
 |                                                 |
 | Copyright (c) 2000 - 2017                       |
 |                                                 |
 |     Distributed under the terms of an           |
 |     Agreement between the United Kingdom        |
 |     Car-Parrinello (UKCP) Consortium,           |
 |     Daresbury Laboratory and Accelrys, Inc.     |
 |                                                 |
 | Please cite                                     |
 |                                                 |
 |     "First principles methods using CASTEP"     |
 |                                                 |
 |         Zeitschrift fuer Kristallographie       |
 |           220(5-6) pp. 567-570 (2005)           |
 |                                                 |
 | S. J. Clark, M. D. Segall, C. J. Pickard,       |
 | P. J. Hasnip, M. J. Probert, K. Refson,         |
 | M. C. Payne                                     |
 |                                                 |
 |       in all publications arising from          |
 |              your use of CASTEP                 |
 |                                                 |
 +-------------------------------------------------+


 Compiled for linux_x86_64_gfortran6.0-XT on Fri, 21 Jul 2017 10:20:05 +0100
 from code version 056e886bd5a1+ Castep172_branch Mon, 15 May 2017 14:45:35 +0100
 Compiler: GNU Fortran 6.3.0; Optimisation: fast
 MATHLIBS: Intel MKL(2017.0.0) (LAPACK version 3.6.0)
 FFT Lib : fftw3 version commercial-fftw-3.3.4-sse2-avx
 Fundamental constants values: CODATA 2010

 Run started: Thu, 12 Dec 2019 00:05:30 +0000

 Atomic calculation performed for Al: 1s2 2s2 2p6 3s2 3p1

 Converged in 55 iterations to an ae energy of -6578.725 eV

   ============================================================                
   | Pseudopotential Report - Date of generation 12-12-2019   |                
   ------------------------------------------------------------                
   | Element: Al Ionic charge:  3.00 Level of theory: LDA     |                
   | Atomic Solver: Koelling-Harmon                           |                
   |                                                          |                
   |               Reference Electronic Structure             |                
   |         Orbital         Occupation         Energy        |                
   |            3s              2.000           -0.288        |                
   |            3p              1.000           -0.102        |                
   |                                                          |                
   |                 Pseudopotential Definition               |                
   |        Beta     l      e      Rc     scheme   norm       |                
   |          1      0   -0.288   2.192     qc      0         |                
   |          2      0    0.250   2.192     qc      0         |                
   |          3      1   -0.102   2.192     qc      0         |                
   |          4      1    0.250   2.192     qc      0         |                
   |          5      2    0.000   2.000     qc      0         |                
   |          6      2    0.250   2.000     qc      0         |                
   |         loc     3    0.000   2.192     pn      0         |                
   |                                                          |                
   | Augmentation charge Rinner = 1.398                       |                
   | Partial core correction Rc = 1.398                       |                
   ------------------------------------------------------------                
   | "3|2.2|2.2|1.4|4|5|5|30:31:32U2U2"                       |                
   ------------------------------------------------------------                
   |      Author: Chris J. Pickard, Cambridge University      |                
   ============================================================                

 Atomic calculation performed for Ti: 1s2 2s2 2p6 3s2 3p6 3d2 4s2

 Converged in 78 iterations to an ae energy of -23176.516 eV

   ============================================================                
   | Pseudopotential Report - Date of generation 12-12-2019   |                
   ------------------------------------------------------------                
   | Element: Ti Ionic charge: 12.00 Level of theory: LDA     |                
   | Atomic Solver: Koelling-Harmon                           |                
   |                                                          |                
   |               Reference Electronic Structure             |                
   |         Orbital         Occupation         Energy        |                
   |            3s              2.000           -2.288        |                
   |            3p              6.000           -1.425        |                
   |            4s              2.000           -0.169        |                
   |            3d              2.000           -0.164        |                
   |                                                          |                
   |                 Pseudopotential Definition               |                
   |        Beta     l      e      Rc     scheme   norm       |                
   |          1      0   -2.288   1.793     qc      0         |                
   |          2      0   -0.169   1.793     qc      0         |                
   |          3      0    0.250   1.793     qc      0         |                
   |          4      1   -1.425   1.793     qc      0         |                
   |          5      1    0.250   1.793     qc      0         |                
   |          6      2   -0.164   1.793     qc      0         |                
   |          7      2    0.250   1.793     qc      0         |                
   |         loc     3    0.000   1.793     pn      0         |                
   |                                                          |                
   | Augmentation charge Rinner = 1.263                       |                
   | Partial core correction Rc = 1.263                       |                
   ------------------------------------------------------------                
   | "3|1.8|9|10|11|30U:40:31:32(qc=5.5)"                     |                
   ------------------------------------------------------------                
   |      Author: Chris J. Pickard, Cambridge University      |                
   ============================================================                

 Pseudo atomic calculation performed for Al 3s2 3p1

 Converged in 15 iterations to a total energy of -105.5951 eV


 Pseudo atomic calculation performed for Ti 3s2 3p6 3d2 4s2

 Converged in 31 iterations to a total energy of -1585.9719 eV

 Calculation parallelised over 42 processes.
 Data is distributed by G-vector(3-way) and k-point(14-way)

 ************************************ Title ************************************
 

 ***************************** General Parameters ******************************
  
 output verbosity                               : normal  (1)
 write checkpoint data to                       : castep.check
 type of calculation                            : single point energy
 stress calculation                             : on
 density difference calculation                 : off
 electron localisation func (ELF) calculation   : off
 Hirshfeld analysis                             : off
 unlimited duration calculation
 timing information                             : on
 memory usage estimate                          : on
 write final potential to formatted file        : off
 write final density to formatted file          : off
 write BibTeX reference list                    : on
 write OTFG pseudopotential files               : on
 write electrostatic potential file             : on
 write bands file                               : on
 checkpoint writing                             : off
  
 output         length unit                     : A
 output           mass unit                     : amu
 output           time unit                     : ps
 output         charge unit                     : e
 output           spin unit                     : hbar/2
 output         energy unit                     : eV
 output          force unit                     : eV/A
 output       velocity unit                     : A/ps
 output       pressure unit                     : GPa
 output     inv_length unit                     : 1/A
 output      frequency unit                     : cm-1
 output force constant unit                     : eV/A**2
 output         volume unit                     : A**3
 output   IR intensity unit                     : (D/A)**2/amu
 output         dipole unit                     : D
 output         efield unit                     : eV/A/e
 output        entropy unit                     : J/mol/K
  
 wavefunctions paging                           : none
 random number generator seed                   : randomised (530643)
 data distribution                              : optimal for this architecture
 optimization strategy                          : maximize speed(+++)

 *********************** Exchange-Correlation Parameters ***********************
  
 using functional                               : Local Density Approximation
 relativistic treatment                         : Koelling-Harmon
 DFT+D: Semi-empirical dispersion correction    : off

 ************************* Pseudopotential Parameters **************************
  
 pseudopotential representation                 : reciprocal space
 <beta|phi> representation                      : reciprocal space
 spin-orbit coupling                            : off

 **************************** Basis Set Parameters *****************************
  
 plane wave basis set cut-off                   :   500.0000   eV
 size of standard grid                          :     1.7500
 size of   fine   gmax                          :    20.0476   1/A
 finite basis set correction                    : automatic
 number of sample energies                      :          3
           sample  spacing                      :     5.0000   eV

 **************************** Electronic Parameters ****************************
  
 number of  electrons                           :  624.0    
 net charge of system                           :  0.000    
 treating system as non-spin-polarized
 number of bands                                :        374

 ********************* Electronic Minimization Parameters **********************
  
[...]
             Al 13 -- Ti 25                  0.21        2.77386
             Al 16 -- Ti 32                  0.21        2.77386
             Al 3  -- Ti 23                  0.21        2.77386
             Al 2  -- Ti 22                  0.21        2.77386
             Al 1  -- Ti 21                  0.21        2.77386
             Al 7  -- Ti 19                  0.21        2.77386
             Al 5  -- Ti 17                  0.21        2.77386
             Al 6  -- Ti 22                  0.21        2.77386
             Al 8  -- Ti 24                  0.21        2.77386
             Al 11 -- Ti 31                  0.21        2.77386
             Al 12 -- Ti 8                   0.21        2.77387
             Al 11 -- Ti 7                   0.21        2.77387
             Al 12 -- Ti 4                   0.21        2.77387
             Al 10 -- Ti 6                   0.21        2.77387
             Al 10 -- Ti 2                   0.21        2.77387
             Al 11 -- Ti 3                   0.21        2.77387
             Al 16 -- Ti 4                   0.21        2.77387
             Al 13 -- Ti 1                   0.21        2.77387
             Al 16 -- Ti 8                   0.21        2.77387
             Al 15 -- Ti 7                   0.21        2.77387
             Al 13 -- Ti 5                   0.21        2.77387
             Al 15 -- Ti 3                   0.21        2.77387
             Al 14 -- Ti 2                   0.21        2.77387
             Al 14 -- Ti 6                   0.21        2.77387
             Al 9  -- Ti 25                  0.21        2.77387
             Al 9  -- Ti 29                  0.21        2.77387
             Al 4  -- Ti 12                  0.21        2.77413
             Al 1  -- Ti 9                   0.21        2.77413
             Al 8  -- Ti 12                  0.21        2.77413
             Al 6  -- Ti 10                  0.21        2.77413
             Al 5  -- Ti 13                  0.21        2.77413
             Al 2  -- Ti 10                  0.21        2.77413
             Al 7  -- Ti 15                  0.21        2.77413
             Al 3  -- Ti 11                  0.21        2.77413
             Al 5  -- Ti 9                   0.21        2.77413
             Al 4  -- Ti 16                  0.21        2.77413
             Al 2  -- Ti 14                  0.21        2.77413
             Al 1  -- Ti 13                  0.21        2.77413
             Al 3  -- Ti 15                  0.21        2.77413
             Al 6  -- Ti 14                  0.21        2.77413
             Al 7  -- Ti 11                  0.21        2.77413
             Al 8  -- Ti 16                  0.21        2.77413
             Al 12 -- Ti 40                  0.21        2.77415
             Al 12 -- Ti 36                  0.21        2.77415
             Al 10 -- Ti 38                  0.21        2.77415
             Al 13 -- Ti 37                  0.21        2.77415
             Al 10 -- Ti 34                  0.21        2.77415
             Al 11 -- Ti 39                  0.21        2.77415
             Al 11 -- Ti 35                  0.21        2.77415
             Al 16 -- Ti 36                  0.21        2.77415
             Al 13 -- Ti 33                  0.21        2.77415
             Al 16 -- Ti 40                  0.21        2.77415
             Al 14 -- Ti 34                  0.21        2.77415
             Al 15 -- Ti 35                  0.21        2.77415
             Al 14 -- Ti 38                  0.21        2.77415
             Al 15 -- Ti 39                  0.21        2.77415
             Al 9  -- Ti 5                   0.21        2.77885
             Al 9  -- Ti 1                   0.21        2.77885
             Al 9  -- Ti 19                  0.23        2.79600
             Al 9  -- Ti 11                  0.23        2.80049
             Al 9  -- Ti 42                  0.23        2.80108
             Al 15 -- Ti 23                  0.23        2.80479
             Al 11 -- Ti 19                  0.23        2.80479
             Al 14 -- Ti 22                  0.23        2.80479
             Al 13 -- Ti 21                  0.23        2.80479
             Al 16 -- Ti 24                  0.23        2.80479
             Al 12 -- Ti 20                  0.23        2.80479
             Al 10 -- Ti 18                  0.23        2.80479
             Al 15 -- Ti 47                  0.23        2.80481
             Al 11 -- Ti 43                  0.23        2.80481
             Al 14 -- Ti 46                  0.23        2.80481
             Al 13 -- Ti 45                  0.23        2.80481
             Al 16 -- Ti 48                  0.23        2.80481
             Al 12 -- Ti 44                  0.23        2.80481
             Al 10 -- Ti 42                  0.23        2.80481
             Al 3  -- Ti 27                  0.23        2.80481
             Al 8  -- Ti 32                  0.23        2.80481
             Al 1  -- Ti 25                  0.23        2.80481
             Al 2  -- Ti 26                  0.23        2.80481
             Al 7  -- Ti 31                  0.23        2.80482
             Al 6  -- Ti 30                  0.23        2.80482
             Al 5  -- Ti 29                  0.23        2.80482
             Al 4  -- Ti 28                  0.23        2.80482
             Al 7  -- Ti 7                   0.23        2.80485
             Al 6  -- Ti 6                   0.23        2.80485
             Al 2  -- Ti 2                   0.23        2.80485
             Al 8  -- Ti 8                   0.23        2.80485
             Al 3  -- Ti 3                   0.23        2.80485
             Al 1  -- Ti 1                   0.23        2.80485
             Al 5  -- Ti 5                   0.23        2.80485
             Al 4  -- Ti 4                   0.23        2.80485
             Al 1  -- Ti 34                  0.22        2.80554
             Al 8  -- Ti 39                  0.23        2.80554
             Al 5  -- Ti 38                  0.22        2.80554
             Al 3  -- Ti 36                  0.23        2.80554
             Al 2  -- Ti 33                  0.23        2.80554
             Al 7  -- Ti 40                  0.23        2.80554
             Al 6  -- Ti 37                  0.23        2.80554
             Al 4  -- Ti 35                  0.23        2.80554
             Al 16 -- Ti 15                  0.23        2.80555
             Al 15 -- Ti 16                  0.23        2.80555
             Al 13 -- Ti 14                  0.22        2.80555
             Al 12 -- Ti 11                  0.23        2.80555
             Al 10 -- Ti 9                   0.23        2.80555
             Al 14 -- Ti 13                  0.23        2.80555
             Al 11 -- Ti 12                  0.23        2.80555
             Al 13 -- Ti 15                  0.23        2.80556
             Al 11 -- Ti 9                   0.23        2.80556
             Al 14 -- Ti 16                  0.23        2.80556
             Al 10 -- Ti 12                  0.23        2.80556
             Al 15 -- Ti 13                  0.23        2.80556
             Al 16 -- Ti 14                  0.23        2.80556
             Al 12 -- Ti 10                  0.23        2.80556
             Al 4  -- Ti 34                  0.23        2.80557
             Al 7  -- Ti 37                  0.22        2.80558
             Al 3  -- Ti 33                  0.22        2.80558
             Al 6  -- Ti 40                  0.23        2.80558
             Al 2  -- Ti 36                  0.23        2.80558
             Al 8  -- Ti 38                  0.23        2.80558
             Al 1  -- Ti 35                  0.23        2.80558
             Al 5  -- Ti 39                  0.23        2.80558
             Al 1  -- Ti 2                   0.23        2.80595
             Al 5  -- Ti 6                   0.23        2.80595
             Al 4  -- Ti 3                   0.23        2.80595
             Al 3  -- Ti 4                   0.23        2.80595
             Al 6  -- Ti 5                   0.23        2.80595
             Al 2  -- Ti 1                   0.23        2.80595
             Al 8  -- Ti 7                   0.23        2.80595
             Al 7  -- Ti 8                   0.23        2.80595
             Al 4  -- Ti 26                  0.23        2.80597
             Al 8  -- Ti 30                  0.23        2.80597
             Al 5  -- Ti 31                  0.23        2.80597
             Al 7  -- Ti 29                  0.22        2.80598
             Al 6  -- Ti 32                  0.23        2.80598
             Al 2  -- Ti 28                  0.23        2.80598
             Al 1  -- Ti 27                  0.23        2.80598
             Al 3  -- Ti 25                  0.22        2.80598
             Al 10 -- Ti 41                  0.23        2.80598
             Al 16 -- Ti 47                  0.23        2.80598
             Al 12 -- Ti 43                  0.23        2.80598
             Al 14 -- Ti 45                  0.23        2.80598
             Al 13 -- Ti 46                  0.23        2.80598
             Al 15 -- Ti 48                  0.23        2.80598
             Al 11 -- Ti 44                  0.23        2.80598
             Al 10 -- Ti 20                  0.23        2.80600
             Al 16 -- Ti 22                  0.23        2.80600
             Al 12 -- Ti 18                  0.23        2.80600
             Al 15 -- Ti 21                  0.23        2.80600
             Al 11 -- Ti 17                  0.22        2.80600
             Al 14 -- Ti 24                  0.23        2.80600
             Al 13 -- Ti 23                  0.23        2.80600
             Ti 7  -- Ti 19                  0.04        2.80705
             Ti 27 -- Ti 43                  0.04        2.80705
             Ti 31 -- Ti 47                  0.04        2.80705
             Ti 6  -- Ti 18                  0.04        2.80705
             Ti 3  -- Ti 19                  0.04        2.80705
             Ti 2  -- Ti 18                  0.04        2.80705
             Ti 8  -- Ti 20                  0.04        2.80705
             Ti 5  -- Ti 17                  0.04        2.80705
             Ti 4  -- Ti 20                  0.04        2.80705
             Ti 1  -- Ti 17                  0.04        2.80705
             Ti 32 -- Ti 44                  0.04        2.80705
             Ti 25 -- Ti 41                  0.04        2.80705
             Ti 28 -- Ti 44                  0.04        2.80705
             Ti 26 -- Ti 42                  0.04        2.80705
             Ti 7  -- Ti 23                  0.04        2.80705
             Ti 30 -- Ti 42                  0.04        2.80705
             Ti 29 -- Ti 45                  0.04        2.80705
             Ti 27 -- Ti 47                  0.04        2.80705
             Ti 31 -- Ti 43                  0.04        2.80705
             Ti 3  -- Ti 23                  0.04        2.80705
             Ti 2  -- Ti 22                  0.04        2.80705
             Ti 6  -- Ti 22                  0.04        2.80705
             Ti 4  -- Ti 24                  0.04        2.80705
             Ti 1  -- Ti 21                  0.04        2.80705
             Ti 8  -- Ti 24                  0.04        2.80705
             Ti 5  -- Ti 21                  0.04        2.80705
             Ti 25 -- Ti 45                  0.04        2.80705
             Ti 28 -- Ti 48                  0.04        2.80705
             Ti 26 -- Ti 46                  0.04        2.80705
             Ti 32 -- Ti 48                  0.04        2.80705
             Ti 29 -- Ti 41                  0.04        2.80705
             Ti 30 -- Ti 46                  0.04        2.80705
             Ti 6  -- Ti 9                   0.04        2.80746
             Ti 5  -- Ti 10                  0.04        2.80746
             Ti 3  -- Ti 12                  0.04        2.80746
             Ti 8  -- Ti 11                  0.04        2.80746
             Ti 4  -- Ti 11                  0.04        2.80746
             Ti 2  -- Ti 9                   0.04        2.80746
             Ti 1  -- Ti 10                  0.04        2.80746
             Ti 3  -- Ti 16                  0.04        2.80746
             Ti 2  -- Ti 13                  0.04        2.80746
             Ti 6  -- Ti 13                  0.04        2.80746
             Ti 7  -- Ti 12                  0.04        2.80746
             Ti 1  -- Ti 14                  0.04        2.80746
             Ti 4  -- Ti 15                  0.04        2.80746
             Ti 8  -- Ti 15                  0.04        2.80746
             Ti 7  -- Ti 16                  0.04        2.80746
             Ti 5  -- Ti 14                  0.04        2.80746
             Ti 38 -- Ti 41                  0.04        2.80747
             Ti 39 -- Ti 44                  0.04        2.80747
             Ti 34 -- Ti 41                  0.04        2.80747
             Ti 35 -- Ti 44                  0.04        2.80747
             Ti 40 -- Ti 43                  0.04        2.80747
             Ti 36 -- Ti 43                  0.04        2.80747
             Ti 37 -- Ti 46                  0.04        2.80747
             Ti 33 -- Ti 42                  0.04        2.80747
             Ti 34 -- Ti 45                  0.04        2.80747
             Ti 38 -- Ti 45                  0.04        2.80747
             Ti 35 -- Ti 48                  0.04        2.80747
             Ti 39 -- Ti 48                  0.04        2.80747
             Ti 36 -- Ti 47                  0.04        2.80747
             Ti 33 -- Ti 46                  0.04        2.80747
             Ti 40 -- Ti 47                  0.04        2.80747
             Ti 37 -- Ti 42                  0.04        2.80747
             Ti 13 -- Ti 31                  0.04        2.80749
             Ti 15 -- Ti 29                  0.04        2.80749
             Ti 12 -- Ti 30                  0.04        2.80749
             Ti 10 -- Ti 32                  0.04        2.80749
             Ti 10 -- Ti 28                  0.04        2.80749
             Ti 11 -- Ti 25                  0.04        2.80749
             Ti 12 -- Ti 26                  0.04        2.80749
             Ti 9  -- Ti 27                  0.04        2.80749
             Ti 16 -- Ti 30                  0.04        2.80749
             Ti 11 -- Ti 29                  0.04        2.80749
             Ti 9  -- Ti 31                  0.04        2.80749
             Ti 16 -- Ti 26                  0.04        2.80749
             Ti 13 -- Ti 27                  0.04        2.80749
             Ti 14 -- Ti 28                  0.04        2.80749
             Ti 14 -- Ti 32                  0.04        2.80749
             Ti 15 -- Ti 25                  0.04        2.80749
             Ti 17 -- Ti 39                  0.04        2.80750
             Ti 17 -- Ti 35                  0.04        2.80750
             Ti 20 -- Ti 38                  0.04        2.80750
             Ti 20 -- Ti 34                  0.04        2.80750
             Ti 18 -- Ti 40                  0.04        2.80750
             Ti 18 -- Ti 36                  0.04        2.80750
             Ti 23 -- Ti 37                  0.04        2.80750
             Ti 19 -- Ti 33                  0.04        2.80750
             Ti 21 -- Ti 35                  0.04        2.80750
             Ti 21 -- Ti 39                  0.04        2.80750
             Ti 24 -- Ti 34                  0.04        2.80750
             Ti 24 -- Ti 38                  0.04        2.80750
             Ti 22 -- Ti 36                  0.04        2.80750
             Ti 22 -- Ti 40                  0.04        2.80750
             Ti 23 -- Ti 33                  0.04        2.80750
             Ti 19 -- Ti 37                  0.04        2.80750
             Al 9  -- Ti 41                  0.22        2.80991
             Al 9  -- Ti 10                  0.22        2.81047
             Al 9  -- Ti 17                  0.22        2.81479
             Ti 29 -- Ti 38                  0.10        2.85491
             Ti 31 -- Ti 40                  0.10        2.85491
             Ti 25 -- Ti 34                  0.10        2.85491
             Ti 27 -- Ti 36                  0.10        2.85491
             Ti 32 -- Ti 39                  0.10        2.85491
             Ti 28 -- Ti 35                  0.10        2.85491
             Ti 30 -- Ti 37                  0.10        2.85491
             Ti 26 -- Ti 33                  0.10        2.85491
             Ti 13 -- Ti 22                  0.10        2.85493
             Ti 16 -- Ti 23                  0.10        2.85493
             Ti 15 -- Ti 24                  0.10        2.85493
             Ti 12 -- Ti 19                  0.09        2.85493
             Ti 11 -- Ti 20                  0.10        2.85493
             Ti 9  -- Ti 18                  0.10        2.85493
             Ti 14 -- Ti 21                  0.10        2.85493
             Ti 10 -- Ti 17                  0.10        2.85493
             Ti 5  -- Ti 39                  0.10        2.85493
             Ti 1  -- Ti 35                  0.10        2.85493
             Ti 8  -- Ti 38                  0.10        2.85493
             Ti 4  -- Ti 34                  0.10        2.85493
             Ti 6  -- Ti 40                  0.10        2.85493
             Ti 2  -- Ti 36                  0.10        2.85493
             Ti 7  -- Ti 37                  0.10        2.85493
             Ti 3  -- Ti 33                  0.10        2.85493
             Ti 13 -- Ti 47                  0.10        2.85496
             Ti 9  -- Ti 43                  0.10        2.85496
             Ti 16 -- Ti 46                  0.10        2.85496
             Ti 14 -- Ti 48                  0.10        2.85496
             Ti 10 -- Ti 44                  0.10        2.85496
             Ti 15 -- Ti 45                  0.10        2.85496
             Ti 11 -- Ti 41                  0.10        2.85496
             Ti 12 -- Ti 42                  0.09        2.85496
             Ti 6  -- Ti 31                  0.10        2.85546
             Ti 8  -- Ti 29                  0.10        2.85546
             Ti 7  -- Ti 30                  0.10        2.85546
             Ti 2  -- Ti 27                  0.10        2.85546
             Ti 4  -- Ti 25                  0.10        2.85546
             Ti 3  -- Ti 26                  0.10        2.85546
             Ti 5  -- Ti 32                  0.10        2.85546
             Ti 1  -- Ti 28                  0.10        2.85546
             Ti 24 -- Ti 45                  0.10        2.85551
             Ti 20 -- Ti 41                  0.09        2.85551
             Ti 23 -- Ti 46                  0.10        2.85551
             Ti 19 -- Ti 42                  0.09        2.85551
             Ti 22 -- Ti 47                  0.10        2.85551
             Ti 18 -- Ti 43                  0.10        2.85551
             Ti 21 -- Ti 48                  0.10        2.85551
             Ti 17 -- Ti 44                  0.10        2.85551
======================================================================

 
 A BibTeX formatted list of references used in this run has been written to 
 castep.bib
 
Initialisation time =     15.82 s
Calculation time    =   1967.07 s
Finalisation time   =      0.32 s
Total time          =   1983.20 s
Peak Memory Use     = 1898896 kB
  
Overall parallel efficiency rating: Very good (86%)                             
  
Data was distributed by:-
G-vector (3-way); efficiency rating: Very good (86%)                            
k-point (14-way); efficiency rating: Excellent (99%)                            
