250
Lattice="14.1205261 0.0 0.0 0.0 14.1205261 0.0 0.0 0.0 20.32355995" Properties=species:S:1:pos:R:3:momenta:R:3:tags:I:1:forces:R:3 spacegroup="P 1" unit_cell=conventional pbc="T T T"
Ti       1.38588117       1.42968107       2.06352435      -2.51765341       1.69567260       3.00678454        0       0.19235904      -0.12757665      -0.17884198 
Al       0.00360656       0.05732777      -0.03510708       0.20046718       3.11406410      -1.91743751        1       0.01850972      -0.21550352       0.05854885 
Ti       1.44179683       1.39889739       6.15190770       2.85988009      -1.26758482       5.27782547        0      -0.23529243       0.08350314      -0.39877969 
Al       0.05959911      -0.04758091       4.08709341       3.21234990      -2.58103494       1.19727989        1      -0.36794159       0.18491711      -0.18175454 
Ti       1.47923143       1.38950609      10.19350146       6.48507687      -2.17365857       3.11449836        0      -0.36729319       0.14111732       0.13744139 
Al       0.03451400       0.03904042       8.15261005       1.83470561       2.09522216       1.28851472        1      -0.34863886      -0.30641551       0.08468405 
Ti       1.44514827       1.44070772      14.18051978       3.15742394       2.75715716      -4.38948430        0      -0.40686703      -0.21614804       0.54356642 
Al      -0.04782012       0.01307302      12.27426380      -2.59432338       0.70487947       4.33909189        1       0.19373531      -0.08175197      -0.37235526 
Ti       1.45764295       1.44420234      18.27655886       4.37940823       3.10530528      -1.40705797        0      -0.38103501      -0.17321620       0.12736527 
Al      -0.00113831      -0.00140732      16.26641810      -0.04520820      -0.05063450       0.39749670        1       0.09896298       0.15810602      -0.10752676 
Ti       1.45532497       4.27196958       2.09935432       4.18529832       3.44047719       6.45660599        0      -0.17946538      -0.29079589      -0.43634854 
Al      -0.05154299       2.83022730      -0.03112664      -2.73739147       0.35707788      -1.72076007        1       0.56335295       0.12949344      -0.08981752 
Ti       1.40586911       4.19845277       6.11236304      -0.63116306      -3.64365557       1.46421887        0      -0.16713372       0.18472252      -0.15690795 
Al      -0.02981243       2.85083425       4.08079177      -1.63069999       1.44078102       0.85386947        1       0.04373086      -0.15795574      -0.17683651 
Ti       1.37721282       4.28103250      10.12268447      -3.39686400       4.31318447      -3.72342968        0      -0.02749396      -0.35296843       0.54503952 
Al       0.07517838       2.73851723       8.27236687       4.04248976      -4.60941590       7.72996562        1      -0.51149876       0.54026149      -0.72334713 
Ti       1.41083840       4.19623292      14.16756180      -0.13086491      -3.80805611      -5.67736557        0      -0.08078937       0.50449573       0.39910729 
Al       0.00592756       2.81027573      12.20805266       0.31358285      -0.73318853       0.73954760        1      -0.07686231       0.15081207      -0.15264617 
Ti       1.42049490       4.23911030      18.30253302       0.86949234       0.26436976       1.07930018        0       0.28853856      -0.15357204      -0.16305654 
Al      -0.01002182       2.80385710      16.34413037      -0.56028365      -1.09613466       4.57137688        1      -0.06307792       0.09632863      -0.66622917 
Ti       1.40632792       7.06941741       2.06203512      -0.58077082       0.93579204       2.85254862        0      -0.12917045       0.26433659      -0.25362061 
Al       0.12180651       5.59934932      -0.08358823       6.55393791      -2.61648174      -4.50632717        1      -0.85044305       0.40317941       0.52139165 
Ti       1.45808239       7.07594957       6.11042880       4.46884386       1.50284909       1.29857137        0      -0.10435644      -0.14979001      -0.02554465 
Al       0.04111966       5.68901664       3.99391591       2.19381941       2.20995192      -3.81160815        1      -0.39772463      -0.18618042       0.47149521 
Ti       1.45679823       7.08347307      10.23188558       4.35082110       2.21820960       6.73038703        0      -0.04592612      -0.26803841      -0.61691217 
Al      -0.01834140       5.70653123       8.09056493      -0.99376790       3.11590999      -2.10076832        1       0.08740309      -0.54385399       0.19151025 
Ti       1.34324735       7.11080605      14.25643414      -6.62730033       4.90498330       2.85440427        0       0.45589530      -0.10829685      -0.35423281 
Al       0.01935845       5.73204057      12.21172524       1.04157849       4.55465726       0.94515722        1      -0.13237406      -0.30045329      -0.12485806 
Ti       1.44764474       7.01381687      18.21291882       3.42365893      -4.48272785      -7.54437202        0      -0.27116587       0.26820237       0.53731813 
Al       0.06867133       5.62682796      16.27363377       3.69308062      -1.16720221       0.77006756        1      -0.46776749       0.02889473      -0.25795418 
Ti       1.38895800       9.91631908       2.00379979      -2.24966477       3.03656463      -2.72777562        0       0.00656023      -0.46408568       0.32730939 
Al       0.04046337       8.46886403      -0.04221252       2.18839328      -0.21679798      -2.28291114        1      -0.20508735      -0.16799311       0.22594064 
Ti       1.44517703       9.90543798       6.11799311       3.21249661       2.02400741       2.03336907        0      -0.10342220      -0.17301537      -0.03766917 
Al      -0.04739426       8.47370896       4.17128286      -2.53852730       0.07603624       5.75638640        1       0.39029573       0.00087366      -0.57365733 
Ti       1.41027416       9.86326796      10.13293065      -0.11110037      -2.00171494      -2.79571328        0       0.37634941       0.33425569       0.06521266 
Al       0.05143002       8.36636144       8.14799146       2.79320047      -5.70194987       0.99473513        1      -0.18207503       0.72020981      -0.14260932 
Ti       1.40506474       9.93016712      14.15841001      -0.68942551       4.40065214      -6.55222389        0      -0.02972336      -0.37788767       0.49603309 
Al       0.04123004       8.51466003      12.02948379       2.22004901       2.30583062      -8.88287496        1      -0.28643571      -0.12759814       0.98564048 
Ti       1.42383583       9.83167426      18.32326675       1.12622982      -5.04843633       3.07228843        0      -0.12838259       0.51927378      -0.31563830 
Al      -0.01034387       8.41660869      16.32314931      -0.56460871      -2.97714386       3.46420699        1       0.01519761       0.48707454      -0.40012174 
Ti       1.40162607      12.62753197       1.98074653      -1.03253502      -7.78010505      -4.99120106        0      -0.09728720       0.65317491       0.24091964 
Al       0.04359001      11.34882840      -0.06512139       2.32312032       2.83347550      -3.55391476        1      -0.42950210      -0.28161289       0.14394459 
Ti       1.45172687      12.74349994       6.12423962       3.83486933       3.34498805       2.64184516        0      -0.18983977      -0.41076083      -0.02201930 
Al      -0.08598325      11.23120638       4.06619612      -4.63178818      -3.52165835       0.10404568        1       0.53988459       0.36113279       0.13016117 
Ti       1.42118870      12.75145554      10.18803659       0.90084705       4.15092662       2.57937478        0       0.05922874      -0.22820103       0.12434704 
Al       0.05514209      11.37223254       8.18610746       2.98095913       4.11424134       3.08147276        1      -0.29021603      -0.28517580      -0.19434521 
Ti       1.40627587      12.72875770      14.25713771      -0.54489231       1.98276364       2.99292304        0       0.10924429       0.03141368       0.03385267 
Al       0.05902942      11.28515769      12.22925553       3.17616586      -0.58367914       1.87245753        1      -0.40528658       0.22075437      -0.35221968 
Ti       1.39684693      12.75830438      18.34552113      -1.45386096       4.78589386       5.19681010        0       0.16398635      -0.40617173      -0.59183547 
Al      -0.06829212      11.31780686      16.23794071      -3.69222261       1.13453901      -1.10033762        1       0.34374392      -0.23575651       0.27759470 
Ti       4.19720161       1.40311341       2.04334696      -3.78748361      -0.88772425       1.06778056        0       0.05398423      -0.09468965      -0.02807047 
Al       2.81124335       0.02096616      -0.07855389      -0.68666712       1.13442879      -4.21331152        1       0.12441540      -0.09702385       0.61915241 
Ti       4.21866901       1.40472562       6.13084295      -1.69949354      -0.73801027       3.21494781        0       0.02991764      -0.15058478      -0.46460806 
Al       2.79138745      -0.07375685       4.09605926      -1.75640369      -3.97259048       1.66730133        1       0.25015166       0.47673140      -0.33137077 
Ti       4.20653028       1.39660394      10.17373066      -2.86048017      -1.49162685       1.15758188        0       0.16722408       0.08330078      -0.04129398 
Al       2.83367471      -0.04640196       8.14021082       0.54929100      -2.54433223       0.60400243        1       0.14134601       0.03144003       0.07164379 
Ti       4.20344282       1.45919465      14.22626146      -3.13423727       4.56889573      -0.05393608        0       0.31480016      -0.15313346      -0.18525946 
Al       2.80992261       0.03831003      12.22660880      -0.74456052       2.06358277       1.76570526        1       0.20552676      -0.24760417      -0.10307599 
Ti       4.21186650       1.43581287      18.31335751      -2.31028720       2.27362528       2.12994577        0       0.34087441      -0.24706870      -0.18661403 
Al       2.90147712       0.02528175      16.28109996       4.15813760       1.36112988       1.18229827        1      -0.56162128      -0.15751745      -0.24148872 
Ti       4.26738672       4.23315511       1.96647990       3.03841233      -0.27591086      -6.35892992        0      -0.02828070       0.09571887       0.35565867 
Al       2.84986622       2.83330898      -0.00813942       1.35383024       0.51061957      -0.40320367        1      -0.36562764       0.02549092       0.26221446 
Ti       4.26040710       4.19542045       6.15267361       2.30111751      -3.89863478       5.30490556        0      -0.39450541       0.45478517      -0.71662177 
Al       2.83269162       2.85156277       4.07008404       0.47717152       1.49064196       0.30897652        1       0.03612727      -0.10435338       0.08435605 
Ti       4.25594925       4.23110338      10.15291073       1.93714626      -0.54468997      -0.83706178        0       0.06017771      -0.32147753       0.16522397 
Al       2.83712004       2.80973256       8.09381179       0.68519711      -0.83134668      -1.88040400        1      -0.18978611      -0.27888498       0.45636908 
Ti       4.20188089       4.28098800      14.25554163      -3.33594129       4.33406394       2.76693553        0       0.01633958      -0.20484381      -0.38081134 
Al       2.79504214       2.84560209      12.22636347      -1.54406007       1.18217830       1.69870157        1       0.32131554       0.00047798      -0.43780857 
Ti       4.27316041       4.18893548      18.34000803       3.55086160      -4.54249182       4.71235812        0      -0.31882778       0.35791431      -0.26438445 
Al       2.74221502       2.82615327      16.26563800      -4.43074083       0.14588323       0.35690273        1       0.41166267       0.19678052      -0.10825470 
Ti       4.27036510       7.07710372       2.00231110       3.31308889       1.57618630      -2.88325898        0      -0.13696857      -0.40158555       0.27232829 
Al       2.75462150       5.71151979       0.02617610      -3.71645910       3.41769672       1.42360273        1       0.62749971      -0.35586032      -0.07903102 
Ti       4.24891529       7.11676774       6.09740763       1.25220834       5.43150086       0.07593432        0       0.06378924      -0.43412657       0.23253213 
Al       2.82847237       5.73660175       4.08930308       0.27023292       4.74562279       1.34582873        1       0.17240374      -0.67316178      -0.03187845 
Ti       4.24098988       7.08184053      10.16738529       0.50312565       2.07472978       0.52629040        0       0.19880157      -0.16771024      -0.10948624 
Al       2.79628638       5.45541642       8.17219413      -1.49860798     -10.38214958       2.29811195        1       0.18151401       1.26299313      -0.32166755 
Ti       4.25940878       7.05604213      14.24078380       2.22436055      -0.42214782       1.35943377        0      -0.24117695      -0.06620999      -0.20097900 
Al       2.88102422       5.59181330      12.09024000       3.07272213      -3.04102117      -5.58684593        1      -0.31805576       0.32566687       0.70461591 
Ti       4.25033167       6.99919243      18.30968939       1.38436278      -5.89085090       1.79011057        0       0.01234505       0.36026473      -0.06968374 
Al       2.81576971       5.72310513      16.24546909      -0.43738195       4.02339411      -0.74510084        1       0.13368863      -0.53925187      -0.08079409 
Ti       4.19597917       9.84985793       2.04111874      -3.88579806      -3.35884746       0.86889312        0       0.18576633       0.02845023       0.09284598 
Al       2.79961930       8.45604646      -0.04392942      -1.32056489      -0.91268067      -2.36576814        1       0.15698312      -0.11548511       0.28652896 
Ti       4.27616445       9.88727811       6.07740129       3.85936064       0.30242592      -1.91859409        0      -0.23771946       0.11515605      -0.00760715 
Al       2.88941733       8.39878806       4.00716376       3.52286141      -3.93691171      -3.09658555        1      -0.37468359       0.62244624       0.39101762 
Ti       4.27534519       9.87273717      10.17368290       3.76048564      -1.09271095       1.16341429        0      -0.35185667       0.24649360       0.01175763 
Al       2.89577949       8.43416820       8.16651590       3.87754571      -2.08019176       2.00490917        1      -0.37047644       0.10837431      -0.19598913 
Ti       4.22653559       9.83300855      14.19741300      -0.95214406      -4.94835326      -2.80596792        0      -0.08401232       0.35213309       0.18174694 
Al       2.90785859       8.46510219      12.21944627       4.50637365      -0.39367783       1.36811644        1      -0.58236103       0.00452153      -0.14094358 
Ti       4.24032520       9.91999100      18.37085783       0.39264403       3.39765431       7.66472196        0      -0.09596654      -0.44891445      -0.60754820 
Al       2.79975694       8.47181435      16.30590767      -1.31139360      -0.00238945       2.53272896        1       0.16070081       0.15120312      -0.31547628 
Ti       4.18171706      12.70163385       1.97113350      -5.27583811      -0.63235534      -5.90008328        0       0.17541043       0.20766519       0.39748471 
Al       2.83035993      11.21025209       0.07352782       0.30127759      -4.65586589       3.93034786        1      -0.27174626       0.45701778      -0.65841866 
Ti       4.31268538      12.72918149       6.03145638       7.39755531       1.97480188      -6.30306351        0      -0.36456095      -0.26289637       0.55172384 
Al       2.83847732      11.31097197       4.05555208       0.75833520       0.76419987      -0.49376589        1      -0.17826232      -0.21070390       0.05532367 
Ti       4.34033275      12.69200298      10.18051136      10.02274096      -1.57468235       1.83779278        0      -0.78059582       0.18902705       0.08057178 
Al       2.80892330      11.25632393       8.12653745      -0.78598068      -2.16224489      -0.14088314        1       0.28442463       0.23368760       0.11024260 
Ti       4.25986420      12.71459703      14.19760253       2.29062147       0.62303821      -2.81842152        0      -0.12042180       0.16896462      -0.02190020 
Al       2.86121480      11.36949638      12.22865156       2.02457896       3.96097951       1.83891528        1      -0.08338590      -0.31366473      -0.33620064 
Ti       4.19112938      12.69566148      18.26030079      -4.33476363      -1.23671352      -2.94903871        0       0.31630120       0.05864388       0.36138887 
Al       2.84879811      11.23992992      16.25142903       1.28888186      -3.05861413      -0.40351460        1      -0.40594537       0.25789233       0.01833200 
Ti       7.04497947       1.43487000       2.00640210      -1.44768594       2.24346422      -2.47924128        0       0.25660429       0.11798207       0.29928412 
Al       5.72910688       0.00841798       0.08307024       4.33673842       0.42490128       4.46712111        1      -0.65391064      -0.22325099      -0.56670526 
Ti       7.06263265       1.37919354       6.09458430       0.23192343      -3.17990778      -0.19327271        0       0.00361389       0.13894197       0.29406861 
Al       5.69099501      -0.03785209       4.11045084       2.30155765      -2.03944197       2.43919125        1      -0.27867102       0.25026677      -0.43854469 
Ti       7.04030120       1.48952401      10.20877650      -1.92469780       7.50370049       4.45998591        0       0.14047340      -0.28994711      -0.72685791 
Al       5.62689792       0.04800039       8.15102430      -1.12760524       2.61140348       1.17532786        1       0.25667173      -0.15220786      -0.06530953 
Ti       7.12216226       1.39398137      14.25015676       5.94292410      -1.74125994       2.26091613        0      -0.53894041       0.12604525      -0.28017976 
Al       5.70431841       0.01688492      12.14082271       3.04066889       0.92322572      -2.84600628        1      -0.24470267      -0.03236612       0.49251566 
Ti       7.05193750       1.37599271      18.27908795      -0.82361018      -3.50623143      -1.19108886        0      -0.07183843       0.04622659      -0.05430892 
Al       5.59902571      -0.00483182      16.23932947      -2.64007645      -0.25202451      -1.06364219        1       0.38525543       0.08113845       0.05068449 
Ti       7.08089126       4.26369997       2.02973533       1.99887872       2.65136118      -0.26444203        0      -0.07163432      -0.19370444      -0.05307802 
Al       5.63257204       2.77833164      -0.02376260      -0.80821598      -2.48582008      -1.26483399        1       0.30224688       0.16293796       0.24434147 
Ti       7.02678128       4.21768061       6.03880588      -3.23114158      -1.80085458      -5.63160397        0       0.19190585      -0.00852722       0.29248420 
Al       5.66665760       2.73547728       4.02543295       0.98980193      -4.80057105      -2.12512990        1      -0.13690841       0.40841557       0.20020130 
Ti       7.14313699       4.29555713      10.21052891       7.99263724       5.74498299       4.70472791        0      -0.49835403      -0.25122980      -0.26862887 
Al       5.53364206       2.87293822       8.05383100      -6.13911878       2.61919118      -4.03297171        1       0.93872888      -0.41217821       0.72980479 
Ti       7.02734492       4.21335216      14.12734083      -3.20901548      -2.17514660      -9.54708357        0      -0.02322085       0.27554709       0.69533861 
Al       5.69147944       2.79167024      12.15557286       2.29306523      -1.73052629      -2.06000324        1      -0.51269179       0.30714690       0.35304605 
Ti       7.05709562       4.22105088      18.30028656      -0.33067536      -1.52285035       0.88132239        0      -0.13493433      -0.30371794      -0.01895470 
Al       5.57127648       2.82601542      16.21012211      -4.16814882       0.08891172      -2.63450728        1       0.34728033      -0.09705439       0.25484527 
Ti       7.04518259       7.09352441       2.05485784      -1.42197296       3.20131456       2.16845152        0       0.28012156      -0.24397624      -0.12841493 
Al       5.68880239       5.68773597      -0.02143138       2.20327022       2.10406485      -1.13420150        1      -0.15388247      -0.40832252       0.26814780 
Ti       7.06252826       7.06673640       6.18824157       0.18127476       0.60957817       8.74796092        0      -0.27437809      -0.12683697      -0.84419318 
Al       5.63260851       5.61335275       4.14864248      -0.85620481      -1.88264625       4.52520291        1      -0.00212223       0.20031764      -0.51409278 
Ti       7.11905625       7.04165707      10.19503632       5.67790317      -1.78319323       3.20164374        0      -0.30846685       0.18176424      -0.23648742 
Al       5.63525606       5.60741610       8.19213677      -0.70417569      -2.18317745       3.39384681        1       0.04959029       0.34923026      -0.30417304 
Ti       7.07044990       7.11740714      14.24363252       0.98142865       5.48097540       1.65984753        0      -0.08199890      -0.52446684      -0.08697760 
Al       5.64182090       5.70199312      12.17309344      -0.34344577       2.92422465      -1.12650262        1       0.04817082      -0.17669243       0.17497979 
Ti       7.05372845       6.98243096      18.30036935      -0.64227911      -7.50942426       0.84160908        0      -0.02600206       0.45701946      -0.30947537 
Al       5.61942432       5.59031137      16.25170247      -1.52959339      -3.14560492      -0.39104118        1       0.30622071       0.21397043       0.01698815 
Ti       7.03366209       9.87528576       2.03642381      -2.58934416      -0.89888778       0.34835645        0       0.00588208      -0.07166083      -0.27666658 
Al       5.63352871       8.41673480       0.06769905      -0.78006090      -2.99577412       3.63051232        1       0.15755957       0.36523263      -0.54531268 
Ti       7.03987855       9.87249238       6.04235127      -1.94207661      -1.13038563      -5.30407745        0       0.27426798       0.15974601       0.18023693 
Al       5.70698838       8.49196305       4.08718659       3.19058689       1.04334339       1.20790927        1      -0.23763922      -0.22103941      -0.16594879 
Ti       7.04694128       9.80517064      10.29131370      -1.27257346      -7.61852935      12.43271066        0       0.14488514       0.60478213      -1.15434694 
Al       5.63014561       8.49943568       8.13445417      -0.94113001       1.48089772       0.29764971        1       0.31074965      -0.04780260       0.12192284 
Ti       7.02556596       9.89049729      14.26607545      -3.37343231       0.62516195       3.83669256        0       0.04698602       0.16686516      -0.12423828 
Al       5.61601471       8.53872591      12.18091655      -1.73646308       3.55868751      -0.66617421        1       0.19057184      -0.55189763       0.38079609 
Ti       6.98802642       9.81659469      18.26952056      -6.98172962      -6.54045244      -2.11081401        0       0.33790592       0.36416522       0.00643309 
Al       5.58047678       8.43984967      16.23294236      -3.68450915      -1.76211984      -1.36239626        1       0.22069956       0.12872374       0.36141821 
Ti       7.05663912      12.72413416       2.07329315      -0.36081098       1.52730360       3.92924650        0      -0.05280897       0.02687562      -0.37020662 
Al       5.50557496      11.25347225       0.01704545      -7.67044370      -2.30749478       0.93793038        1       0.99881711       0.31351290       0.02645361 
Ti       7.09792742      12.65498151       6.14404570       3.62503662      -5.18958286       4.53859300        0      -0.27953630       0.14816041      -0.24341702 
Al       5.64465927      11.33998339       3.99105518      -0.20193666       2.34865494      -4.00154426        1      -0.04734408      -0.27631595       0.26905359 
Ti       7.05894324      12.72313649      10.14284592      -0.08573456       1.39760499      -1.84758235        0       0.25586130      -0.18359366      -0.01207986 
Al       5.59037425      11.33209431       8.16623948      -3.10027508       1.91160959       1.98229668        1       0.44666029      -0.28073546      -0.26164682 
Ti       7.10495742      12.72716628      14.21098055       4.32931664       1.79995830      -1.52553165        0      -0.16464670      -0.13700703      -0.08729523 
Al       5.68764328      11.30956782      12.19166649       2.15120602       0.72653117      -0.10032374        1      -0.08885222       0.02806750       0.21294720 
Ti       7.07009557      12.70327369      18.27231561       0.89367104      -0.54932257      -1.82887103        0      -0.37660367      -0.24286458       0.06761826 
Al       5.54805397      11.33578101      16.17730151      -5.40764646       2.11643399      -4.39652976        1       0.57251175      -0.27379907       0.49561407 
Ti       9.88435401       1.44941509       1.95510671      -0.00011190       3.60296266      -7.40898390        0       0.00251538      -0.23601849       0.70233014 
Al       8.40963262      -0.03626847       0.03708489      -3.36166186      -1.95611616       2.00181093        1       0.50325941       0.22413282      -0.20957837 
Ti       9.91083537       1.43807945       6.17235405       2.53984238       2.51729322       7.27374358        0      -0.24163659      -0.11557231      -0.39186344 
Al       8.42517536       0.02169345       4.09588743      -2.51865817       1.21088408       1.65648073        1       0.41861113       0.10817916      -0.33441895 
Ti       9.85974083       1.49484082      10.15309583      -2.39703966       8.01914545      -0.83918669        0       0.01953246      -0.28614934       0.04607459 
Al       8.48530216      -0.03236527       8.14476942       0.65656316      -1.73170332       0.87688336        1      -0.35996372       0.26947244       0.19834510 
Ti       9.88099339       1.39325105      14.28456143      -0.32859217      -1.80584995       5.57476324        0       0.00238698       0.15845175      -0.50183097 
Al       8.49485009       0.04528397      12.16853095       1.22808638       2.46747201      -1.38767679        1      -0.06105840      -0.11187500       0.11407959 
Ti       9.87944935       1.45236308      18.28614455      -0.52093978       3.83868009      -0.51419879        0      -0.24037367      -0.52673104      -0.13319093 
Al       8.47132665      -0.03370873      16.19050809      -0.04609048      -1.84641047      -3.64557836        1       0.04939974       0.02780941       0.65630677 
Ti       9.91085076       4.21487933       2.07525797       2.56740760      -2.08025384       4.11123559        0      -0.08487017      -0.04325254      -0.41668814 
Al       8.54265578       2.82096733      -0.04881920       3.79338475      -0.17301054      -2.64617916        1      -0.42227877      -0.00195758       0.21223566 
Ti       9.92665062       4.21319275       6.10283842       4.06603209      -2.15180688       0.55577705        0      -0.33317431       0.52576735      -0.02699458 
Al       8.50018251       2.86614203       4.14320341       1.51665050       2.24803846       4.22917100        1      -0.08238602      -0.36576895      -0.49014233 
Ti       9.87921421       4.30018373      10.16443443      -0.48347915       6.20303084       0.24164828        0       0.11151062      -0.22465672      -0.10762974 
Al       8.48668445       2.88431832       8.12917873       0.73721366       3.25458326      -0.01853694        1      -0.30022458      -0.31855482      -0.02915873 
Ti       9.87249667       4.21109107      14.25898852      -1.15474301      -2.46061249       3.12814348        0       0.00648641      -0.10584519      -0.22795226 
Al       8.42920347       2.87570142      12.19521652      -2.27467428       2.78615709       0.07870146        1       0.56612375      -0.29700116       0.10905853 
Ti       9.90249762       4.26233644      18.26014308       1.79669925       2.47263084      -3.02982666        0       0.19026310      -0.48886754      -0.00580408 
Al       8.40111188       2.81789724      16.26149606      -3.87773907      -0.34025844       0.14679649        1       0.20264161       0.00449785       0.00878874 
Ti       9.85244254       7.05023984       2.02327552      -3.10015423      -0.97852546      -0.93033128        0       0.06990656      -0.00665925      -0.27278645 
Al       8.49131025       5.56955569      -0.05790544       1.02417265      -4.26406960      -3.09633484        1      -0.11547936       0.33814910       0.50080185 
Ti       9.87928282       7.09892891       6.11755947      -0.48002114       3.69970011       1.92553182        0       0.09742822      -0.41359429      -0.42951992 
Al       8.48925526       5.63787706       4.00289105       0.90724816      -0.53789424      -3.29558752        1      -0.13984187       0.17351232       0.59180924 
Ti       9.86365359       7.05875090      10.15308881      -2.03284834      -0.14723824      -0.83107475        0      -0.07205067       0.00372396       0.09640470 
Al       8.39771572       5.60389019       8.04117926      -4.01699801      -2.41224962      -4.77584156        1       0.48702082       0.12647906       0.43513429 
Ti       9.92573155       7.00075879      14.23701444       3.97278123      -5.73900848       0.96495157        0      -0.36357345       0.37086279      -0.37498753 
Al       8.46605102       5.64963929      12.23456732      -0.31431207       0.11503781       2.22936326        1       0.18266136       0.21947347       0.05250862 
Ti       9.87267633       7.02936160      18.33098247      -1.11131227      -2.99508503       3.76035486        0       0.18037303       0.08416888      -0.71572788 