250
Lattice="14.1205261 0.0 0.0 0.0 14.1205261 0.0 0.0 0.0 20.32355995" Properties=species:S:1:pos:R:3:momenta:R:3:tags:I:1:forces:R:3 spacegroup="P 1" unit_cell=conventional pbc="T T T"
Ti       1.40884228       1.41367552       2.02804999      -1.56251857       0.79318273      -2.09733133        0       0.03882882       0.04730298       0.02102783 
Al       0.00005843       0.00533258      -0.01220382       0.01688726       1.46418674      -3.34806950        1       0.01705577      -0.01215229       0.08441946 
Ti       1.41411593       1.40661151       6.10165640       1.00246747      -2.64991197       2.23656803        0      -0.06128098       0.03242226       0.01195053 
Al      -0.00066466       0.00394503       4.05194249      -0.18400144       1.08238679      -3.50316987        1      -0.02908464      -0.02560757       0.09016897 
Ti       1.40318005       1.40381763      10.15370379      -4.31879300      -4.01153850      -3.93468947        0       0.09969164       0.02954435       0.01872675 
Al      -0.01330865      -0.00382939       8.14497981      -3.65226922      -1.04950085       4.26616753        1       0.06978395       0.04839924      -0.13838429 
Ti       1.41200237       1.41671887      14.22384288      -0.02532028       2.27081916      -1.29050521        0      -0.01702463      -0.06310287       0.00865941 
Al       0.01215309      -0.00207156      12.17615124       3.33595159      -0.56875316      -4.93422392        1      -0.04738298       0.00559565       0.12061939 
Ti       1.42254348       1.40253184      18.27498627       5.10826554      -4.63397178      -7.89696635        0      -0.08235804       0.11397451       0.12381261 
Al       0.01282545       0.00748763      16.26564533       3.51821797       2.05534806       1.86446228        1      -0.09668347      -0.02842965      -0.05453495 
Ti       1.40740486       4.24514576       2.04089354      -2.26475554       4.37863749       4.16015420        0       0.00291156      -0.02590442      -0.00564673 
Al       0.00640452       2.82667231       0.00203366       1.75808223       0.70452591       0.55509963        1      -0.02334748      -0.01254157      -0.07163922 
Ti       1.41639338       4.23050969       6.10029390       2.11460681      -2.75086596       1.57097780        0      -0.01414569       0.03116116      -0.02121105 
Al      -0.01351633       2.81948584       4.06273799      -3.70848156      -1.26732191      -0.54203298        1       0.08676249       0.03167477       0.00399830 
Ti       1.42266227       4.22704542      10.17561246       5.16685933      -4.43797408       6.73567666        0      -0.06793765       0.05287160      -0.10248548 
Al      -0.00272861       2.82368442       8.13260510      -0.74705362      -0.11519292       0.87220061        1       0.05000547       0.00804835      -0.03271692 
Ti       1.41478964       4.23441041      14.22862271       1.33135615      -0.84994241       1.03483903        0      -0.04940848       0.03240981      -0.07112530 
Al      -0.00815170       2.82274930      12.17781435      -2.23899193      -0.37042849      -4.47774525        1       0.00334871       0.04120478       0.11342166 
Ti       1.41327023       4.24102845      18.27617030       0.59278561       2.36908422      -7.32247168        0      -0.01164841      -0.08995639       0.07302727 
Al      -0.01478966       2.83651003      16.26121899      -4.05876556       3.40282785       0.65084973        1       0.07621224      -0.09357900      -0.00890498 
Ti       1.40201081       7.07131064       2.03797895      -4.88916596       5.38048472       2.73748848        0       0.08767000      -0.06355417      -0.05363736 
Al       0.00667245       5.64558062      -0.00544165       1.83022015      -0.72092547      -1.49359123        1      -0.05305591       0.02948142       0.02348525 
Ti       1.40936489       7.07410622       6.09342135      -1.30897229       6.74343473      -1.77552147        0       0.01590767      -0.05058776       0.03099150 
Al      -0.00931749       5.64950133       4.08184905      -2.55716356       0.35425556       4.70329641        1       0.04513688      -0.00681355      -0.08161215 
Ti       1.41128711       7.04813690      10.15749364      -0.37067843      -5.90482855      -2.08635803        0       0.04800657       0.08894219       0.04922780 
Al       0.00615634       5.63964135       8.14005449       1.68910393      -2.35088554       2.91577828        1      -0.03982596       0.05946216      -0.08693359 
Ti       1.41610478       7.05424400      14.23614635       1.97284675      -2.93240396       4.69998012        0      -0.03703504       0.01504655      -0.09569719 
Al      -0.00760209       5.65890839      12.18965307      -2.08561722       2.93533342      -1.22946262        1       0.05230228      -0.06596753       0.03921366 
Ti       1.41459070       7.04837709      18.30616072       1.23568623      -5.78535438       7.28322306        0      -0.02346732       0.13838780      -0.10913618 
Al       0.01682406       5.65385535      16.26799122       4.61513378       1.55021025       2.50932044        1      -0.12611145      -0.00744842      -0.04485915 
Ti       1.41377891       9.88427795       2.03927544       0.84085296      -0.04128170       3.36521615        0      -0.00792081       0.05566347      -0.13637888 
Al       0.01338262       8.47722201      -0.00270917       3.67155426       1.34582391      -0.74146420        1      -0.09083079      -0.03825901       0.05511269 
Ti       1.41416540       9.88710001       6.09423428       1.02819257       1.33192776      -1.37785012        0      -0.02838070       0.01473915       0.06202534 
Al       0.01001121       8.48349294       4.06060583       2.74675930       3.06867153      -1.12538866        1      -0.06467991      -0.03193950       0.05121360 
Ti       1.41372861       9.89195628      10.16537242       0.81667949       3.69521879       1.74847069        0      -0.00102119      -0.05087247      -0.04405625 
Al       0.00151884       8.47713817       8.14839687       0.41700388       1.32482664       5.20682960        1      -0.00406960       0.00310480      -0.09675476 
Ti       1.42913361       9.88078531      14.23947893       8.31752632      -1.74508416       6.32451345        0      -0.12665781       0.01895176      -0.08482041 
Al      -0.00160719       8.47955304      12.19588782      -0.43965190       1.98678436       0.48107143        1       0.03703454      -0.02487060      -0.00280110 
Ti       1.40718748       9.87834471      18.30058969      -2.36987604      -2.93502303       4.56695600        0       0.01940931       0.00648221      -0.13861351 
Al      -0.01102968       8.46516871      16.24035261      -3.02468301      -1.96133248      -5.07347398        1       0.10207970       0.03730175       0.14118869 
Ti       1.41005400      12.71695128       2.04210851      -0.97320501       4.12992916       4.74683350        0       0.01502309      -0.02816807      -0.11534440 
Al       0.01091020      11.29879216       0.00390939       2.99547686       0.65153457       1.07454672        1      -0.02850743       0.00363008       0.01410871 
Ti       1.41749140      12.70692214       6.10463007       2.64673999      -0.75514250       3.68041913        0      -0.07407848       0.01720247      -0.09487823 
Al      -0.01084328      11.29349789       4.05345485      -2.97463501      -0.80081401      -3.08737978        1       0.07857817       0.04253763       0.09762996 
Ti       1.41741944      12.71413330      10.15012106       2.61651374       2.75606852      -5.67841492        0       0.02445616      -0.04100991       0.06305500 
Al      -0.00600922      11.31611790       8.13187017      -1.64938878       5.40299589       0.67135279        1       0.02559701      -0.15258420      -0.01179521 
Ti       1.40663877      12.69628484      14.22720764      -2.63757712      -5.93480285       0.34888937        0       0.01307156       0.09880848       0.00280695 
Al       0.00986867      11.29937502      12.18287746       2.70951573       0.81042157      -3.08857155        1      -0.02578492      -0.02116670       0.08106031 
Ti       1.40667177      12.70154745      18.30083645      -2.61933867      -3.37608115       4.69231824        0       0.05696193      -0.01939213      -0.03444010 
Al      -0.01267185      11.29573080      16.25716024      -3.47652108      -0.18971282      -0.46322285        1       0.08663920      -0.00320186       0.00750110 
Ti       4.23753431       1.40755463       2.02893033       0.66885690      -2.19050039      -1.66945814        0      -0.03902687       0.02872055      -0.00196181 
Al       2.84085663       0.00264150       0.00547209       4.59572912       0.72493699       1.50114252        1      -0.11490210      -0.01313773      -0.03995849 
Ti       4.23463382       1.42124667       6.09112152      -0.74071860       4.47578486      -2.89576251        0       0.03965002      -0.09311300       0.04097736 
Al       2.81018772       0.01635263       4.07315553      -3.81820822       4.48769460       2.31665622        1       0.09628660      -0.08426140      -0.05421352 
Ti       4.22830104       1.39551419      10.15213389      -3.82696056      -8.05556370      -4.69679100        0       0.03533568       0.07696793       0.07837955 
Al       2.83063847      -0.00930796       8.12080668       1.79338423      -2.55443742      -2.36672817        1      -0.02454485       0.04737336       0.00652457 
Ti       4.23903926       1.41459597      14.22266149       1.39946282       1.23571837      -1.86413843        0      -0.09542681      -0.07509328       0.05079755 
Al       2.83697649      -0.01498300      12.19680868       3.53079544      -4.11171769       0.73404592        1      -0.09690918       0.07938924      -0.00222384 
Ti       4.23406239       1.41841206      18.29640149      -1.01929279       3.09935548       2.52958518        0       0.03743309       0.00668168      -0.06566256 
Al       2.80576185      -0.01345726      16.28735830      -5.03188352      -3.69229980       7.82052989        1       0.13798547       0.08587873      -0.22099894 
Ti       4.22896974       4.23743685       2.03437157      -3.50170222       0.62248276       0.98102121        0       0.02294288      -0.01625376      -0.02412520 
Al       2.81270290       2.83478356      -0.00470547      -3.13026660       2.93057708      -1.29084541        1       0.03641197      -0.05314572       0.03418052 
Ti       4.24448572       4.23005272       6.10186115       4.05534256      -2.97110579       2.33580189        0      -0.05951708       0.08092712       0.00094647 
Al       2.83042914       2.83265371       4.07703907       1.73294087       2.34706304       3.38138503        1      -0.08450972      -0.02210067      -0.09546876 
Ti       4.23025063       4.22517947      10.15123730      -2.87618626      -5.34837258      -5.13598276        0       0.04990345       0.03044531       0.03200411 
Al       2.83817309       2.80787813       8.13449348       3.86003232      -4.45361836       1.39029078        1      -0.08570236       0.07597507      -0.04538525 
Ti       4.23415727       4.22439538      14.22079650      -0.97596674      -5.72743921      -2.77306253        0      -0.02184077       0.09209145       0.04880593 
Al       2.80866446       2.82593990      12.18524198      -4.23729275       0.50090523      -2.44106243        1       0.08272072      -0.06219368       0.04048211 
Ti       4.23021288       4.23501989      18.29426191      -2.89501163      -0.55579959       1.48632591        0       0.04124303      -0.02585077      -0.07824805 
Al       2.81876607       2.83379680      16.24024436      -1.46494015       2.65830372      -5.10471557        1       0.03354972      -0.07806632       0.11050997 
Ti       4.23950294       7.05398531       2.03703936       1.62656808      -3.05688411       2.27936972        0      -0.07207651       0.04733196      -0.05861032 
Al       2.81851270       5.64679825      -0.01033554      -1.53545220      -0.38737432      -2.83333027        1       0.01495015       0.01084897       0.11594101 
Ti       4.23538073       7.06744122       6.11146496      -0.37819949       3.49719132       7.00987455        0       0.00999843      -0.01639050      -0.12049861 
Al       2.82044718       5.65949467       4.05539608      -1.00434232       3.09887849      -2.55297766        1       0.00955050      -0.01504580       0.12152208 
Ti       4.24479088       7.05053169      10.14903066       4.20513327      -4.73904051      -6.21071799        0      -0.03750360       0.06415444       0.04394181 
Al       2.81116171       5.64775770       8.12060070      -3.55206461      -0.12577831      -2.42167532        1       0.06784907      -0.02885570       0.03976178 
Ti       4.23795423       7.06037453      14.22602020       0.87539538       0.05380741      -0.22734379        0      -0.00013482      -0.01057533       0.05198498 
Al       2.83867297       5.65570793      12.19741001       3.99613435       2.05745601       0.89778459        1      -0.11030416      -0.04064282      -0.03152770 
Ti       4.23559746       7.06128513      18.29725634      -0.27268669       0.49749808       2.94773401        0       0.00786717      -0.01169557      -0.03370263 
Al       2.81510722       5.65586956      16.26678871      -2.46640029       2.10191613       2.17848387        1       0.10634471      -0.03941706      -0.05550431 
Ti       4.23392595       9.88229866       2.02813772      -1.08502215      -1.00808196      -2.05723876        0       0.05287535       0.00941385      -0.03314764 
Al       2.83763501       8.47627753      -0.00482961       3.71321607       1.08585805      -1.32241531        1      -0.06566514      -0.04910999       0.08570300 
Ti       4.24713043       9.89000306       6.09748371       5.34206975       2.74413637       0.20129928        0      -0.10157877      -0.03569926      -0.02618994 
Al       2.82366943       8.50095843       4.05170746      -0.11721050       7.85910317      -3.56664079        1       0.05077465      -0.17623538       0.11234228 
Ti       4.22983059       9.88737456      10.16432958      -3.08207060       1.46299323       1.24305599        0       0.02564515      -0.04079190       0.01245225 
Al       2.84008289       8.47008104       8.12758998       4.38370142      -0.61152365      -0.50204959        1      -0.10455211       0.04671956       0.03511428 
Ti       4.23442743       9.88525492      14.21766940      -0.84208558       0.42915072      -4.29529859        0       0.02350296      -0.05953619       0.08209701 
Al       2.81806384       8.47341779      12.20603820      -1.65728747       0.30088547       3.26384008        1       0.04466399      -0.03772655      -0.11265690 
Ti       4.21647709       9.88275378      18.29630939      -9.58232535      -0.78607207       2.48513825        0       0.16906446       0.01397740      -0.05676270 
Al       2.82531827       8.46863924      16.25228220       0.33307095      -1.00925541      -1.79911985        1      -0.00278437       0.01230612       0.08962582 
Ti       4.22571639      12.69828626       2.03434580      -5.08597108      -4.96058215       0.97111241        0       0.04580260       0.07651237       0.02976828 
Al       2.83958339      11.29228416      -0.01480334       4.24634478      -1.13388660      -4.06028308        1      -0.10763837       0.04907669       0.12181394 
Ti       4.23786497      12.70472934       6.09185721       0.83181592      -1.82027012      -2.54174671        0      -0.00182040       0.08744395      -0.05050959 
Al       2.81072202      11.28668362       4.05268061      -3.67329786      -2.66942563      -3.29993791        1       0.05853117       0.10710409       0.09999821 
Ti       4.23470637      12.70861139      10.15942878      -0.70595978       0.06498245      -1.14466093        0       0.02747607      -0.04511977       0.02249871 
Al       2.82124355      11.31000788       8.12587966      -0.78571995       3.72630199      -0.97301783        1       0.00691270      -0.11916044       0.01132204 
Ti       4.23164293      12.70701451      14.23676568      -2.19902407      -0.70902532       5.00726471        0       0.02310206       0.03969597       0.01591000 
Al       2.82912092      11.29876973      12.20123371       1.37517298       0.64470107       1.94738266        1      -0.05226957      -0.01007258      -0.04613916 
Ti       4.23619527      12.71706965      18.28440845       0.01891995       4.18604316      -3.31264273        0       0.01371571      -0.06011134      -0.02280399 
Al       2.82756788      11.30229730      16.24914820       0.94915475       1.61145656      -2.65882297        1      -0.04051062      -0.05519183       0.11324298 
Ti       7.05760980       1.40105262       2.02595343      -1.29065313      -5.35811726      -3.12174912        0       0.04686629       0.04660554      -0.03483953 
Al       5.64298696      -0.01629965      -0.01278948      -1.43214725      -4.47235682      -3.50867805        1       0.05429777       0.10027728       0.08978400 
Ti       7.05430052       1.41505157       6.09804395      -2.90220472       1.46155834       0.47396929        0       0.06918032       0.00277956      -0.03308667 
Al       5.65438455       0.00818080       4.04786829       1.69300158       2.24448956      -4.62241537        1      -0.05980550      -0.05414014       0.08769504 
Ti       7.06470925       1.41348651      10.17174536       2.16416470       0.69852358       4.85482401        0      -0.05122648      -0.00471825      -0.02868472 
Al       5.65033184       0.00421193       8.13468929       0.58412317       1.15508262       1.44272017        1       0.02862248      -0.03814732      -0.07297809 
Ti       7.06065554       1.42066736      14.22526031       0.19342861       4.19452386      -0.60299520        0       0.04408289      -0.07193573      -0.05690481 
Al       5.63215008       0.00871111      12.19837740      -4.40656951       2.38857163       1.16387023        1       0.10143595      -0.08643528      -0.02420334 
Ti       7.06631351       1.42111682      18.29319880       2.94752486       4.41432527       0.97182312        0      -0.01887272      -0.05618282      -0.00580500 
Al       5.66075994       0.01275265      16.25799161       3.44382806       3.49844808      -0.23409662        1      -0.06799052      -0.09210497       0.02299174 
Ti       7.06879223       4.23083831       2.03484986       4.15065365      -2.59224524       1.21368671        0      -0.11610286       0.00019711      -0.03253293 
Al       5.64595571       2.82280765       0.00171338      -0.61866488      -0.35703361       0.47118942        1       0.01376865      -0.01239284       0.01114326 
Ti       7.05050011       4.23989589       6.10792464      -4.75444129       1.82082361       5.28491190        0       0.06391193      -0.01570703      -0.11495111 
Al       5.62914826       2.82429159       4.05989129      -5.22942500       0.05190244      -1.32409925        1       0.13609469       0.01441705       0.00160766 
Ti       7.06224562       4.24038847      10.17306419       0.96254804       2.06193606       5.49616579        0      -0.07291013       0.00611135      -0.05586856 
Al       5.66144057       2.81317238       8.13226817       3.63082811      -3.00109078       0.78250672        1      -0.06716992       0.04080875       0.02539471 
Ti       7.05356288       4.23345850      14.23628318      -3.26364536      -1.31227185       4.76594883        0       0.02886783       0.06389108      -0.11015479 
Al       5.63777178       2.81370039      12.20080797      -2.86577472      -2.85523690       1.82881175        1       0.03208928       0.05744815      -0.07922804 
Ti       7.05979400       4.24740059      18.29691809      -0.23026774       5.47375690       2.78143240        0      -0.03453756      -0.10094733      -0.06360980 
Al       5.64669294       2.80965974      16.23588958      -0.41703341      -3.96251318      -6.29685237        1      -0.00400082       0.11101941       0.19314898 
Ti       7.04275273       7.05526368       2.02551777      -8.52662891      -2.43748575      -3.32777614        0       0.12886032      -0.02524231       0.09296479 
Al       5.63741700       5.63551391      -0.00076419      -2.96363808      -3.48554323      -0.20907148        1       0.02374261       0.04095668       0.01711028 
Ti       7.05631694       7.06940398       6.09610696      -1.92129563       4.45256929      -0.46700583        0       0.03426207      -0.03866381       0.02676378 
Al       5.64403034       5.65457235       4.06661505      -1.14710719       1.74549365       0.52375681        1       0.02251230      -0.04135242       0.02064751 
Ti       7.06886089       7.06268023      10.15357858       4.18602899       1.17582798      -3.99385407        0      -0.07711377      -0.04253113       0.05648984 
Al       5.65572347       5.64195642       8.12568796       2.06124088      -1.71598946      -1.02428134        1      -0.05051158       0.03867296       0.03971755 
Ti       7.05147014       7.06398507      14.21787822      -4.28112459       1.80920055      -4.19462762        0       0.07636763      -0.09318724       0.05984461 
Al       5.62215486       5.64203641      12.19479278      -7.14848823      -1.69583770       0.17898498        1       0.17522772       0.00161876      -0.02915470 
Ti       7.05718800       7.06068057      18.29072920      -1.49727053       0.20464714      -0.23091777        0       0.02514264       0.02417258       0.00895054 
Al       5.64711547       5.65286741      16.26732669      -0.30270668       1.27700112       2.32633381        1      -0.03939375      -0.04483102      -0.05400771 
Ti       7.06007101       9.86722897       2.04416867      -0.09326872      -8.34726177       5.75089693        0       0.00643569       0.09971630      -0.11278537 
Al       5.65947237       8.46247711       0.00207120       3.09099058      -2.69852163       0.56681689        1      -0.05090178       0.08119825      -0.04298941 
Ti       7.06119563       9.87313382       6.09623713       0.45529244      -5.46929301      -0.40484200        0       0.01702513       0.10935220       0.00088300 
Al       5.65318461       8.48378786       4.05219616       1.36361582       3.14712346      -3.43299808        1      -0.05532237      -0.08399831       0.10020422 
Ti       7.05688403       9.87507262      10.16673307      -1.64800150      -4.52386403       2.41362720        0      -0.02788864       0.12219099      -0.00129748 
Al       5.65413987       8.49397006       8.13114893       1.62814537       5.94264046       0.47442158        1      -0.01187314      -0.11226190       0.01227005 
Ti       7.04920182       9.87797281      14.24455739      -5.38626184      -3.11481944       8.79648168        0       0.08120376       0.03572219      -0.14222628 
Al       5.66444626       8.46109680      12.19904320       4.45310469      -3.07989239       1.34466798        1      -0.13527810       0.03600947      -0.06676126 
Ti       7.07268498       9.89012557      18.28399131       6.05008273       2.80291025      -3.51187680        0      -0.06621041      -0.05456775       0.05948940 
Al       5.65230225       8.47188910      16.27077547       1.12164345      -0.11787737       3.27427735        1      -0.04719580      -0.01441556      -0.04151975 
Ti       7.06165446      12.70241256       2.03116886       0.67791453      -2.95464901      -0.57762025        0      -0.00268990      -0.02230194       0.01799505 
Al       5.64022185      11.30754569       0.00131029      -2.19098609       3.04975014       0.35953887        1       0.06854576      -0.12372256      -0.00772553 
Ti       7.06818919      12.71465020       6.08037674       3.86150971       3.00745050      -8.12824139        0      -0.01998356      -0.05139725       0.11348998 
Al       5.63311328      11.29458765       4.07194621      -4.14250333      -0.50243373       1.98370833        1       0.09103895       0.02296468      -0.06978022 
Ti       7.05312511      12.70655121      10.16186405      -3.47818743      -0.93808747       0.04270698        0       0.00413294      -0.02732807       0.03540930 
Al       5.62832422      11.30156358       8.11912153      -5.45496739       1.41272348      -2.82722278        1       0.15257106       0.00200570       0.05522798 
Ti       7.05288105      12.71430874      14.22024738      -3.59557270       2.84227726      -3.04346345        0       0.03571397      -0.02644321      -0.00834621 
Al       5.62993886      11.28012878      12.20691260      -5.01282527      -4.47060502       3.50597425        1       0.12455033       0.09368100      -0.07296154 
Ti       7.05666562      12.70288918      18.30216011      -1.75139863      -2.72000412       5.33305483        0       0.03391799       0.02619843      -0.12195395 
Al       5.64543776      11.27546398      16.25499471      -0.76193120      -5.74950356      -1.05556062        1      -0.00642143       0.14369133       0.05847042 
Ti       9.88483183       1.40414672       2.04369961       0.22531514      -3.84934037       5.52052490        0      -0.01185422       0.06679606      -0.14934564 
Al       8.48577561      -0.01888103      -0.00135726       3.69216990      -5.18094473      -0.37061110        1      -0.10355075       0.11003571       0.04498434 
Ti       9.89424535       1.40719439       6.11188715       4.80790011      -2.36524878       7.21692306        0      -0.10794821       0.04502036      -0.09380327 
Al       8.47241054       0.00055026       4.07201652       0.02682434       0.15072823       2.00434564        1       0.01552011      -0.00857306      -0.04283730 
Ti       9.88341517       1.41124695      10.16375998      -0.46284255      -0.39125261       0.96363290        0       0.03280782       0.02756673      -0.02526186 
Al       8.48625072       0.00913162       8.14413336       3.82247596       2.50537612       4.03543359        1      -0.10762120      -0.06004507      -0.10225702 
Ti       9.88823168       1.41556640      14.22183656       1.87949623       1.71165847      -2.26527729        0      -0.06478217      -0.01320774       0.06819733 
Al       8.47434186       0.00641560      12.18214595       0.55490740       1.76035686      -3.28735785        1      -0.03379926      -0.03904589       0.12477307 
Ti       9.88238472       1.39372403      18.29821831      -0.96718823      -8.92453039       3.41443644        0      -0.01188168       0.14605492      -0.07587177 
Al       8.48106611      -0.00564023      16.25343936       2.40048257      -1.54766873      -1.48493065        1      -0.06392570       0.03303360       0.01495923 
Ti       9.87856106       4.23870629       2.03294919      -2.82726328       1.24103390       0.28613996        0       0.05394687      -0.01740808      -0.05958185 
Al       8.48171573       2.83302179      -0.00899628       2.57997348       2.44588315      -2.46757892        1      -0.04259572      -0.06864880       0.07271088 
Ti       9.88296727       4.23512341       6.10732886      -0.68356267      -0.50469432       4.99798407        0      -0.01710588      -0.01246245      -0.04568617 
Al       8.47070131       2.83367120       4.04942077      -0.44402418       2.62306617      -4.19270980        1      -0.01191544      -0.09310473       0.15411027 
Ti       9.88060261       4.23455505      10.16306789      -1.83224805      -0.78218145       0.62346142        0       0.05698300      -0.02301800      -0.08448338 
Al       8.45872389       2.83934949       8.13515398      -3.72901627       4.18374654       1.57338528        1       0.09060258      -0.07405304      -0.01148197 
Ti       9.89050226       4.24023163      14.23421998       2.98641400       1.98396016       3.76358829        0      -0.05579974      -0.02529598      -0.04787515 
Al       8.47345366       2.83757118      12.18721560       0.31186396       3.69556651      -1.89648707        1      -0.01484615      -0.06800826       0.09040946 
Ti       9.88903484       4.23099753      18.28213194       2.27125789      -2.51195215      -4.41872318        0      -0.05720275       0.05529374       0.04411899 
Al       8.47060496       2.82624993      16.24983296      -0.46922937       0.58767673      -2.47230938        1       0.01376787      -0.02940228       0.08105767 
Ti       9.88877796       7.07308396       2.02740382       2.14614388       6.24099792      -2.41132311        0      -0.05587834      -0.13774881       0.03915740 
Al       8.45287924       5.65575787       0.00456101      -5.33238134       2.07071534       1.25109887        1       0.13288930      -0.05001885      -0.03555003 
Ti       9.88646985       7.07406538       6.09020822       1.02311056       6.72233286      -3.33990032        0      -0.02054672      -0.07502923       0.05978602 
Al       8.47984667       5.63368864       4.06486378       2.06573349      -3.98351371       0.04243897        1      -0.05961909       0.11029103       0.01517697 
Ti       9.88153073       7.04982386      10.16166553      -1.38069903      -5.08413011      -0.05543205        0       0.04196580       0.06092716       0.00696627 
Al       8.46954953       5.65957040       8.12962053      -0.75870693       3.11948945       0.05268944        1       0.02260570      -0.01893451      -0.02644492 
Ti       9.89241887       7.06439581      14.22354766       3.91834221       2.01129752      -1.43527726        0      -0.09766800      -0.05377375      -0.00989213 
Al       8.48469150       5.63744159      12.18333394       3.39360287      -2.95411672      -2.96121042        1      -0.11936184       0.08009317       0.12122199 
Ti       9.88204113       7.06368568      18.28693604      -1.13408764       1.66676355      -2.08030547        0      -0.00095847      -0.02276999      -0.01030255 