2
Lattice="2.95 0.0 0.0 -1.4749999999999994 2.5547749411640948 0.0 0.0 0.0 4.6846000000000005" Properties=species:S:1:pos:R:3 energy=-3187.15645869 pbc="T T T" n_minim_iter=1
Ti       0.00000000       0.00000000       0.00000000 
Ti       0.00000000       1.70318329       2.34230000 
2
Lattice="2.7947823650479378 2.5478114365406634e-12 -5.324923249421314e-12 -1.3973911825217618 2.420352526613573 3.007871832516303e-12 -8.455978120081048e-12 6.333664204288138e-13 4.46199632194792" Properties=species:S:1:pos:R:3 stress="-0.03725821690749669 -4.030975803012878e-12 -4.480972371870879e-13 -4.030975803012878e-12 -0.03725821722332357 2.342383799995673e-12 -4.480972371870879e-13 2.342383799995673e-12 -0.04642078813178834" pbc="T T T" n_minim_iter=2
Ti       0.00000000      -0.00000000       0.00000000 
Ti      -0.00000000       1.61356835       2.23099816 
2
Lattice="2.839510143299915 7.51706347605616e-12 -4.885562805723191e-12 -1.4197550716434468 2.45908791917421 3.0699345492655895e-13 -7.758273735488426e-12 -3.916318443431069e-12 4.55136679449952" Properties=species:S:1:pos:R:3 stress="0.004665953305139799 -4.754453050847351e-13 -3.988221762052049e-12 -4.754453050847351e-13 0.004665953119187112 -2.131765091211526e-12 -3.988221762052049e-12 -2.131765091211526e-12 0.0014671957011605013" pbc="T T T" n_minim_iter=3
Ti       0.00000000      -0.00000000       0.00000000 
Ti      -0.00000000       1.63939194       2.27568340 
