2
Lattice="2.635967714814221 6.978223578404147e-12 -4.535354752991737e-12 -1.3179838574010667 2.282815005302219 2.8498747847586487e-13 -7.202143347750876e-12 -3.6355879911802864e-12 4.225114658204992" Properties=species:S:1:pos:R:3 energy=-3186.64169683 pbc="T T T" n_minim_iter=0
Ti       0.00000000      -0.00000000       0.00000000 
Ti      -0.00000000       1.52187667       2.11255733 
