2
Lattice="2.7415169008360785 7.257644989538919e-12 -4.7169590267498375e-12 -1.3707584504117534 2.3742232817746465 2.963989218749996e-13 -7.490530934478742e-12 -3.781163883867941e-12 4.394296325535841" Properties=species:S:1:pos:R:3 energy=-3187.16462393 pbc="T T T" n_minim_iter=0
Ti       0.00000000      -0.00000000       0.00000000 
Ti      -0.00000000       1.58281552       2.19714816 
