2
Lattice="2.862978233523545 7.579190784982702e-12 -4.925941188941319e-12 -1.4314891167552082 2.4794118814925667 3.0953070597856884e-13 -7.822394608038812e-12 -3.948686179391363e-12 4.588983101955291" Properties=species:S:1:pos:R:3 energy=-3187.28596637 pbc="T T T" n_minim_iter=0
Ti       0.00000000      -0.00000000       0.00000000 
Ti      -0.00000000       1.65294125       2.29449155 
