2
Lattice="2.5798661774730074 6.829705419983997e-12 -4.438828390927189e-12 -1.2899330887305884 2.234229648758096 2.7892206440586787e-13 -7.048859484792373e-12 -3.5582114458234537e-12 4.1351911639087415" Properties=species:S:1:pos:R:3 energy=-3186.15789594 pbc="T T T" n_minim_iter=0
Ti       0.00000000      -0.00000000       0.00000000 
Ti      -0.00000000       1.48948643       2.06759558 
