2
Lattice="2.9749251132602486 7.87554887439219e-12 -5.118553112920152e-12 -1.4874625566233033 2.576360723249424 3.2163383561862693e-13 -8.128262343317199e-12 -4.103085920076179e-12 4.768419443249477" Properties=species:S:1:pos:R:3 energy=-3187.06017493 pbc="T T T" n_minim_iter=0
Ti       0.00000000      -0.00000000       0.00000000 
Ti      -0.00000000       1.71757381       2.38420972 
