2
Lattice="2.9311698585651613 7.759715152956093e-12 -5.043269337161269e-12 -1.46558492927586 2.538467561122511 3.1690323909593735e-13 -8.008711707412094e-12 -4.042737654948925e-12 4.698285440110241" Properties=species:S:1:pos:R:3 energy=-3187.18093501 pbc="T T T" n_minim_iter=0
Ti       0.00000000      -0.00000000       0.00000000 
Ti      -0.00000000       1.69231170       2.34914272 
