2
Lattice="2.839510143299915 7.51706347605616e-12 -4.885562805723191e-12 -1.4197550716434468 2.45908791917421 3.0699345492655895e-13 -7.758273735488426e-12 -3.916318443431069e-12 4.55136679449952" Properties=species:S:1:pos:R:3 stress="0.004665953305139799 -4.754453050847351e-13 -3.988221762052049e-12 -4.754453050847351e-13 0.004665953119187112 -2.131765091211526e-12 -3.988221762052049e-12 -2.131765091211526e-12 0.0014671957011605013" pbc="T T T" n_minim_iter=3
Ti       0.00000000      -0.00000000       0.00000000 
Ti      -0.00000000       1.63939194       2.27568340 
