2
Lattice="2.886067764788856 7.64031593100948e-12 -4.965668236727206e-12 -1.4430338823878108 2.499408002136086 3.1202702915335947e-13 -7.8854811599228e-12 -3.980531798030157e-12 4.625992628457411" Properties=species:S:1:pos:R:3 energy=-3187.26239039 pbc="T T T" n_minim_iter=0
Ti       0.00000000      -0.00000000       0.00000000 
Ti      -0.00000000       1.66627200       2.31299631 
