2
Lattice="2.7158937484584507 7.189812563113618e-12 -4.672872718230427e-12 -1.3579468742229983 2.3520329808836067 2.936286764180223e-13 -7.420521876549919e-12 -3.745823836052958e-12 4.3532257327164725" Properties=species:S:1:pos:R:3 energy=-3187.07843735 pbc="T T T" n_minim_iter=0
Ti       0.00000000      -0.00000000       0.00000000 
Ti      -0.00000000       1.56802198       2.17661287 
