2
Lattice="3.038240304268463 8.043163809993109e-12 -5.227491037638218e-12 -1.5191201521272655 2.631193287125236 3.2847915338683815e-13 -8.30125576776949e-12 -4.190411704377363e-12 4.869905489574103" Properties=species:S:1:pos:R:3 energy=-3186.82653241 pbc="T T T" n_minim_iter=0
Ti       0.00000000      -0.00000000       0.00000000 
Ti      -0.00000000       1.75412885       2.43495274 
