2
Lattice="2.8156475853441 7.453891888774395e-12 -4.844505714987514e-12 -1.4078237926655943 2.4384223377787007 3.0441355602127547e-13 -7.69307507540017e-12 -3.883406648398284e-12 4.513118206387172" Properties=species:S:1:pos:R:3 energy=-3187.2910498 pbc="T T T" n_minim_iter=0
Ti       0.00000000      -0.00000000       0.00000000 
Ti      -0.00000000       1.62561489       2.25655910 
