2
Lattice="2.6082186254629094 6.904763137859937e-12 -4.487610630947536e-12 -1.3041093127254744 2.258783588984546 2.819873874809002e-13 -7.1263256819446844e-12 -3.597315801636824e-12 4.180636463911808" Properties=species:S:1:pos:R:3 energy=-3186.42237793 pbc="T T T" n_minim_iter=0
Ti       0.00000000      -0.00000000       0.00000000 
Ti      -0.00000000       1.50585572       2.09031823 
