2
Lattice="2.908793643506786 7.700478376026598e-12 -5.0047695965352264e-12 -1.4543968217467236 2.519089190435323 3.1448403605658235e-13 -7.947574119297937e-12 -4.0118758586161755e-12 4.662419267050927" Properties=species:S:1:pos:R:3 energy=-3187.22703506 pbc="T T T" n_minim_iter=0
Ti       0.00000000      -0.00000000       0.00000000 
Ti      -0.00000000       1.67939279       2.33120963 
