2
Lattice="2.953209557234973 7.818061066699365e-12 -5.081190079344441e-12 -1.4766047786107153 2.5575545000683206 3.192860596877746e-13 -8.068929845998971e-12 -4.07313532005039e-12 4.733612221007026" Properties=species:S:1:pos:R:3 energy=-3187.12500183 pbc="T T T" n_minim_iter=0
Ti       0.00000000      -0.00000000       0.00000000 
Ti      -0.00000000       1.70503633       2.36680611 
