2
Lattice="2.766669837041647 7.32423260800987e-12 -4.760236297609608e-12 -1.38333491851448 2.396006363515285 2.9911832994104054e-13 -7.559255240604056e-12 -3.815855398600068e-12 4.4346132227655675" Properties=species:S:1:pos:R:3 energy=-3187.2271296 pbc="T T T" n_minim_iter=0
Ti       0.00000000      -0.00000000       0.00000000 
Ti      -0.00000000       1.59733757       2.21730661 
