2
Lattice="3.0174297860585977 7.988071917920703e-12 -5.191685180781589e-12 -1.5087148930223806 2.6131708496839097 3.262292255606836e-13 -8.244396067081163e-12 -4.16170935355993e-12 4.836548925668107" Properties=species:S:1:pos:R:3 energy=-3186.91023064 pbc="T T T" n_minim_iter=0
Ti       0.00000000      -0.00000000       0.00000000 
Ti      -0.00000000       1.74211390       2.41827446 
