2
Lattice="2.68977776791522 7.120675467778306e-12 -4.6279384666384546e-12 -1.3448888839514428 2.32941587828132 2.908051488758936e-13 -7.349166285021865e-12 -3.709804068167615e-12 4.3113652002120455" Properties=species:S:1:pos:R:3 energy=-3186.96496449 pbc="T T T" n_minim_iter=0
Ti       0.00000000      -0.00000000       0.00000000 
Ti      -0.00000000       1.55294392       2.15568260 
