2
Lattice="2.7913735534361384 7.389631002401965e-12 -4.80274065642123e-12 -1.3956867767116692 2.4174004094875245 3.0178917063635044e-13 -7.626752162396912e-12 -3.849927338918831e-12 4.474210078851439" Properties=species:S:1:pos:R:3 energy=-3187.26861223 pbc="T T T" n_minim_iter=0
Ti       0.00000000      -0.00000000       0.00000000 
Ti      -0.00000000       1.61160027       2.23710504 
