2
Lattice="2.9963281880878228 7.932209447498888e-12 -5.1553785021699275e-12 -1.4981640940370413 2.5948963297750285 3.2394782766506234e-13 -8.186741061445844e-12 -4.1326055387650394e-12 4.802725798625691" Properties=species:S:1:pos:R:3 energy=-3186.9882908 pbc="T T T" n_minim_iter=0
Ti       0.00000000      -0.00000000       0.00000000 
Ti      -0.00000000       1.72993088       2.40136290 
