2
Lattice="2.6631445555438127 7.050169099474058e-12 -4.582114283877319e-12 -1.3315722777658001 2.306350839776046 2.8792570084821753e-13 -7.27639748279718e-12 -3.673070922112802e-12 4.268675612113865" Properties=species:S:1:pos:R:3 energy=-3186.82088769 pbc="T T T" n_minim_iter=0
Ti       0.00000000      -0.00000000       0.00000000 
Ti      -0.00000000       1.53756722       2.13433781 
