2
Lattice="3.0587695777113706 8.097511159993524e-12 -5.262812994489772e-12 -1.5293847888486722 2.6489721594536193 3.3069867445325915e-13 -8.357347035249758e-12 -4.218726155869783e-12 4.902811254564491" Properties=species:S:1:pos:R:3 energy=-3186.73767714 pbc="T T T" n_minim_iter=0
Ti       0.00000000      -0.00000000       0.00000000 
Ti      -0.00000000       1.76598144       2.45140563 
