 +-------------------------------------------------+
 |                                                 |
 |      CCC   AA    SSS  TTTTT  EEEEE  PPPP        |
 |     C     A  A  S       T    E      P   P       |
 |     C     AAAA   SS     T    EEE    PPPP        |
 |     C     A  A     S    T    E      P           |
 |      CCC  A  A  SSS     T    EEEEE  P           |
 |                                                 |
 +-------------------------------------------------+
 |                                                 |
 | Welcome to Academic Release CASTEP version 17.21|          
 | Ab Initio Total Energy Program                  |
 |                                                 |
 | Authors:                                        |
 | M. Segall, M. Probert, C. Pickard, P. Hasnip,   |
 | S. Clark, K. Refson, J. R. Yates, M. Payne      |
 |                                                 |
 | Contributors:                                   |
 | P. Lindan, P. Haynes, J. White, V. Milman,      |
 | N. Govind, M. Gibson, P. Tulip, V. Cocula,      |
 | B. Montanari, D. Quigley, M. Glover,            |
 | L. Bernasconi, A. Perlov, M. Plummer,           |
 | E. McNellis, J. Meyer, J. Gale, D. Jochym       |
 | J. Aarons, B. Walker, R. Gillen, D. Jones       |
 | T. Green, I. J. Bush, C. J. Armstrong,          |
 | E. J. Higgins, E. L. Brown, M. S. McFly,        |
 | J. Wilkins, B-C. Shih, P. J. P. Byrne           |
 |                                                 |
 | Copyright (c) 2000 - 2017                       |
 |                                                 |
 |     Distributed under the terms of an           |
 |     Agreement between the United Kingdom        |
 |     Car-Parrinello (UKCP) Consortium,           |
 |     Daresbury Laboratory and Accelrys, Inc.     |
 |                                                 |
 | Please cite                                     |
 |                                                 |
 |     "First principles methods using CASTEP"     |
 |                                                 |
 |         Zeitschrift fuer Kristallographie       |
 |           220(5-6) pp. 567-570 (2005)           |
 |                                                 |
 | S. J. Clark, M. D. Segall, C. J. Pickard,       |
 | P. J. Hasnip, M. J. Probert, K. Refson,         |
 | M. C. Payne                                     |
 |                                                 |
 |       in all publications arising from          |
 |              your use of CASTEP                 |
 |                                                 |
 +-------------------------------------------------+


 Compiled for linux_x86_64_gfortran6.0-XT on Fri, 21 Jul 2017 10:20:05 +0100
 from code version 056e886bd5a1+ Castep172_branch Mon, 15 May 2017 14:45:35 +0100
 Compiler: GNU Fortran 6.3.0; Optimisation: fast
 MATHLIBS: Intel MKL(2017.0.0) (LAPACK version 3.6.0)
 FFT Lib : fftw3 version commercial-fftw-3.3.4-sse2-avx
 Fundamental constants values: CODATA 2010

 Run started: Wed, 30 Oct 2019 11:44:17 +0000

 Atomic calculation performed for Ti: 1s2 2s2 2p6 3s2 3p6 3d2 4s2

 Converged in 78 iterations to an ae energy of -23176.516 eV

   ============================================================                
   | Pseudopotential Report - Date of generation 30-10-2019   |                
   ------------------------------------------------------------                
   | Element: Ti Ionic charge: 12.00 Level of theory: LDA     |                
   | Atomic Solver: Koelling-Harmon                           |                
   |                                                          |                
   |               Reference Electronic Structure             |                
   |         Orbital         Occupation         Energy        |                
   |            3s              2.000           -2.288        |                
   |            3p              6.000           -1.425        |                
   |            4s              2.000           -0.169        |                
   |            3d              2.000           -0.164        |                
   |                                                          |                
   |                 Pseudopotential Definition               |                
   |        Beta     l      e      Rc     scheme   norm       |                
   |          1      0   -2.288   1.793     qc      0         |                
   |          2      0   -0.169   1.793     qc      0         |                
   |          3      0    0.250   1.793     qc      0         |                
   |          4      1   -1.425   1.793     qc      0         |                
   |          5      1    0.250   1.793     qc      0         |                
   |          6      2   -0.164   1.793     qc      0         |                
   |          7      2    0.250   1.793     qc      0         |                
   |         loc     3    0.000   1.793     pn      0         |                
   |                                                          |                
   | Augmentation charge Rinner = 1.263                       |                
   | Partial core correction Rc = 1.263                       |                
   ------------------------------------------------------------                
   | "3|1.8|9|10|11|30U:40:31:32(qc=5.5)"                     |                
   ------------------------------------------------------------                
   |      Author: Chris J. Pickard, Cambridge University      |                
   ============================================================                

 Pseudo atomic calculation performed for Ti 3s2 3p6 3d2 4s2

 Converged in 31 iterations to a total energy of -1585.9998 eV

 Calculation parallelised over 32 processes.
 Data is distributed by k-point(32-way)

 ************************************ Title ************************************
 

 ***************************** General Parameters ******************************
  
 output verbosity                               : normal  (1)
 write checkpoint data to                       : castep.check
 type of calculation                            : single point energy
 stress calculation                             : on
 density difference calculation                 : off
 electron localisation func (ELF) calculation   : off
 Hirshfeld analysis                             : off
 unlimited duration calculation
 timing information                             : on
 memory usage estimate                          : on
 write final potential to formatted file        : off
 write final density to formatted file          : off
 write BibTeX reference list                    : on
 write OTFG pseudopotential files               : on
 write electrostatic potential file             : on
 write bands file                               : on
 checkpoint writing                             : off
  
 output         length unit                     : A
 output           mass unit                     : amu
 output           time unit                     : ps
 output         charge unit                     : e
 output           spin unit                     : hbar/2
 output         energy unit                     : eV
 output          force unit                     : eV/A
 output       velocity unit                     : A/ps
 output       pressure unit                     : GPa
 output     inv_length unit                     : 1/A
 output      frequency unit                     : cm-1
 output force constant unit                     : eV/A**2
 output         volume unit                     : A**3
 output   IR intensity unit                     : (D/A)**2/amu
 output         dipole unit                     : D
 output         efield unit                     : eV/A/e
 output        entropy unit                     : J/mol/K
  
 wavefunctions paging                           : none
 random number generator seed                   : randomised (114418375)
 data distribution                              : optimal for this architecture
 optimization strategy                          : balance speed and memory

 *********************** Exchange-Correlation Parameters ***********************
  
 using functional                               : Local Density Approximation
 relativistic treatment                         : Koelling-Harmon
 DFT+D: Semi-empirical dispersion correction    : off

 ************************* Pseudopotential Parameters **************************
  
 pseudopotential representation                 : reciprocal space
 <beta|phi> representation                      : reciprocal space
 spin-orbit coupling                            : off

 **************************** Basis Set Parameters *****************************
  
 plane wave basis set cut-off                   :   600.0000   eV
 size of standard grid                          :     1.7500
 size of   fine   gmax                          :    21.9610   1/A
 finite basis set correction                    : automatic
 number of sample energies                      :          3
           sample  spacing                      :     5.0000   eV

 **************************** Electronic Parameters ****************************
  
 number of  electrons                           :  192.0    
 net charge of system                           :  0.000    
 treating system as non-spin-polarized
 number of bands                                :        115

 ********************* Electronic Minimization Parameters **********************
  
 Method: Treating system as metallic with density mixing treatment of electrons,
         and number of  SD  steps               :          1
         and number of  CG  steps               :          4
  
 total energy / atom convergence tol.           : 0.1000E-04   eV
 eigen-energy convergence tolerance             : 0.1000E-05   eV
 max force / atom convergence tol.              : ignored
 convergence tolerance window                   :          3   cycles
 max. number of SCF cycles                      :        250
 number of fixed-spin iterations                :         10
 smearing scheme                                : Gaussian
 smearing width                                 : 0.1000       eV
 Fermi energy convergence tolerance             : 0.2721E-13   eV
 periodic dipole correction                     : NONE

 ************************** Density Mixing Parameters **************************
  
 density-mixing scheme                          : Pulay
 max. length of mixing history                  :         20
 charge density mixing amplitude                : 0.8000    
 cut-off energy for mixing                      :  600.0       eV

 *********************** Population Analysis Parameters ************************
  
 Population analysis with cutoff                :  3.000       A

 *******************************************************************************
  

                           -------------------------------
                                      Unit Cell
                           -------------------------------
        Real Lattice(A)                      Reciprocal Lattice(1/A)
   6.3314620   0.0000000   0.0000000        0.9923751   0.0000000   0.0000000
   0.0000000   6.3314620   0.0000000        0.0000000   0.9923751   0.0000000
   0.0000000   0.0000000   6.3314620        0.0000000   0.0000000   0.9923751

                       Lattice parameters(A)       Cell Angles
                    a =    6.331462          alpha =   90.000000
                    b =    6.331462          beta  =   90.000000
                    c =    6.331462          gamma =   90.000000

                       Current cell volume =  253.811920       A**3
                                   density =    3.017478   AMU/A**3
                                           =    5.010640     g/cm^3

                           -------------------------------
                                     Cell Contents
                           -------------------------------
                         Total number of ions in cell =   16
                      Total number of species in cell =    1
                        Max number of any one species =   16

            xxxxxxxxxxxxxxxxxxxxxxxxxxxxxxxxxxxxxxxxxxxxxxxxxxxxxxxxxxxx
            x  Element    Atom        Fractional coordinates of atoms  x
            x            Number           u          v          w      x
            x----------------------------------------------------------x
            x  Ti           1         0.001579   0.000000   0.000000   x 
            x  Ti           2         0.500000   0.000000   0.000000   x 
            x  Ti           3         0.000000   0.500000   0.000000   x 
            x  Ti           4         0.500000   0.500000   0.000000   x 
            x  Ti           5         0.000000   0.000000   0.500000   x 
            x  Ti           6         0.500000   0.000000   0.500000   x 
            x  Ti           7         0.000000   0.500000   0.500000   x 
            x  Ti           8         0.500000   0.500000   0.500000   x 
            x  Ti           9         0.250000   0.250000   0.250000   x 
            x  Ti          10         0.750000   0.250000   0.250000   x 
            x  Ti          11         0.250000   0.750000   0.250000   x 
            x  Ti          12         0.750000   0.750000   0.250000   x 
            x  Ti          13         0.250000   0.250000   0.750000   x 
            x  Ti          14         0.750000   0.250000   0.750000   x 
            x  Ti          15         0.250000   0.750000   0.750000   x 
            x  Ti          16         0.750000   0.750000   0.750000   x 
            xxxxxxxxxxxxxxxxxxxxxxxxxxxxxxxxxxxxxxxxxxxxxxxxxxxxxxxxxxxx


                         No user defined ionic velocities

                           -------------------------------
                                   Details of Species
                           -------------------------------

                               Mass of species in AMU
                                    Ti   47.8670000

                          Electric Quadrupole Moment (Barn)
                                    Ti    0.3020000 Isotope 47

                          Files used for pseudopotentials:
                                    Ti 3|1.8|9|10|11|30U:40:31:32(qc=5.5)

                           -------------------------------
                              k-Points For BZ Sampling
                           -------------------------------
                       MP grid size for SCF calculation is  4  4  4
                            with an offset of   0.000  0.000  0.000
                       Number of kpoints used =            32

                           -------------------------------
                               Symmetry and Constraints
                           -------------------------------

                      Maximum deviation from symmetry =  0.00000         ANG

                      Number of symmetry operations   =           1
                      Number of ionic constraints     =           3
                      Point group of crystal =     1: C1, 1, 1
                      Space group of crystal =    99: P4mm, P 4 -2

             Set iprint > 1 for details on symmetry rotations/translations

                         Centre of mass is constrained
             Set iprint > 1 for details of linear ionic constraints

                         Number of cell constraints= 0
                         Cell constraints are:  1 2 3 4 5 6

                         External pressure/stress (GPa)
                          0.00000   0.00000   0.00000
                                    0.00000   0.00000
                                              0.00000
  
+---------------- MEMORY AND SCRATCH DISK ESTIMATES PER PROCESS --------------+
|                                                     Memory          Disk    |
| Baseline code, static data and system overhead      170.0 MB         0.0 MB |
| BLAS internal memory storage                          0.0 MB         0.0 MB |
| Model and support data                               94.6 MB       132.2 MB |
| Electronic energy minimisation requirements         107.0 MB         0.0 MB |
| Force calculation requirements                       13.2 MB         0.0 MB |
| Stress calculation requirements                      14.6 MB         0.0 MB |
|                                               ----------------------------- |
| Approx. total storage required per process          371.6 MB       132.2 MB |
|                                                                             |
| Requirements will fluctuate during execution and may exceed these estimates |
+-----------------------------------------------------------------------------+
Calculating finite basis set correction with  3 cut-off energies.
Calculating total energy with cut-off of  590.000 eV.
------------------------------------------------------------------------ <-- SCF
SCF loop      Energy           Fermi           Energy gain       Timer   <-- SCF
                               energy          per atom          (sec)   <-- SCF
------------------------------------------------------------------------ <-- SCF
Initial  -2.31880576E+004  0.00000000E+000                        10.87  <-- SCF
      1  -2.49153588E+004  1.19290826E+001   1.07956325E+002      19.64  <-- SCF
      2  -2.54725691E+004  9.87545294E+000   3.48256426E+001      26.89  <-- SCF
      3  -2.54979283E+004  9.71257977E+000   1.58495022E+000      34.82  <-- SCF
      4  -2.54977404E+004  9.07371285E+000  -1.17428402E-002      42.56  <-- SCF
      5  -2.54971426E+004  9.30101734E+000  -3.73588856E-002      51.33  <-- SCF
      6  -2.54971087E+004  9.29980063E+000  -2.12334183E-003      59.96  <-- SCF
      7  -2.54971229E+004  9.29037727E+000   8.89743245E-004      68.06  <-- SCF
      8  -2.54970973E+004  9.28899469E+000  -1.59689276E-003      76.19  <-- SCF
      9  -2.54970974E+004  9.28956341E+000   5.72803962E-006      83.21  <-- SCF
     10  -2.54970972E+004  9.29002204E+000  -1.27865891E-005      89.35  <-- SCF
     11  -2.54970972E+004  9.29018121E+000  -4.91337066E-007      94.68  <-- SCF
     12  -2.54970972E+004  9.29025368E+000   1.10190404E-006      99.87  <-- SCF
------------------------------------------------------------------------ <-- SCF
 
Final energy, E             =  -25496.91440183     eV
Final free energy (E-TS)    =  -25497.09724388     eV
(energies not corrected for finite basis set)
 
NB est. 0K energy (E-0.5TS)      =  -25497.00582286     eV
 
Calculating total energy with cut-off of  595.000 eV.
------------------------------------------------------------------------ <-- SCF
SCF loop      Energy           Fermi           Energy gain       Timer   <-- SCF
                               energy          per atom          (sec)   <-- SCF
------------------------------------------------------------------------ <-- SCF
Initial  -2.54969143E+004  0.00000000E+000                       102.62  <-- SCF
      1  -2.54970994E+004  9.29024774E+000   1.15724649E-002     110.12  <-- SCF
      2  -2.54970994E+004  9.29024733E+000   1.30417366E-006     115.45  <-- SCF
      3  -2.54971841E+004  9.29038589E+000   5.29005841E-003     123.47  <-- SCF
      4  -2.54970970E+004  9.29039518E+000  -5.44491239E-003     131.45  <-- SCF
      5  -2.54970975E+004  9.29033262E+000   3.36938667E-005     138.46  <-- SCF
      6  -2.54970975E+004  9.29027874E+000   5.03566167E-007     144.12  <-- SCF
      7  -2.54970975E+004  9.29022571E+000   5.42366381E-007     149.32  <-- SCF
------------------------------------------------------------------------ <-- SCF
 
Final energy, E             =  -25496.91467681     eV
Final free energy (E-TS)    =  -25497.09751802     eV
(energies not corrected for finite basis set)
 
NB est. 0K energy (E-0.5TS)      =  -25497.00609741     eV
 
Calculating total energy with cut-off of  600.000 eV.
------------------------------------------------------------------------ <-- SCF
SCF loop      Energy           Fermi           Energy gain       Timer   <-- SCF
                               energy          per atom          (sec)   <-- SCF
------------------------------------------------------------------------ <-- SCF
Initial  -2.54969147E+004  0.00000000E+000                       152.07  <-- SCF
      1  -2.54970981E+004  9.29019724E+000   1.14636733E-002     159.11  <-- SCF
      2  -2.54970981E+004  9.29019706E+000   6.85351478E-007     164.34  <-- SCF
      3  -2.54971096E+004  9.29019685E+000   7.21706703E-004     172.38  <-- SCF
      4  -2.54970977E+004  9.29027171E+000  -7.47620121E-004     180.33  <-- SCF
      5  -2.54970977E+004  9.29026177E+000   3.44382929E-006     186.73  <-- SCF
      6  -2.54970977E+004  9.29024478E+000   4.66422756E-007     191.97  <-- SCF
------------------------------------------------------------------------ <-- SCF
 
Final energy, E             =  -25496.91488708     eV
Final free energy (E-TS)    =  -25497.09773080     eV
(energies not corrected for finite basis set)
 
NB est. 0K energy (E-0.5TS)      =  -25497.00630894     eV
 
 For future reference: finite basis dEtot/dlog(Ecut) =      -0.030255eV
 Total energy corrected for finite basis set =  -25497.097749 eV

 ******************* Unconstrained Forces *******************
 *                                                          *
 *               Cartesian components (eV/A)                *
 * -------------------------------------------------------- *
 *                         x            y            z      *
 *                                                          *
 * Ti              1     -0.02367      0.00009     -0.00062 *
 * Ti              2     -0.01753      0.00009     -0.00089 *
 * Ti              3     -0.00814     -0.00016     -0.00058 *
 * Ti              4      0.00392     -0.00016     -0.00060 *
 * Ti              5     -0.00801      0.00011      0.00074 *
 * Ti              6      0.00394      0.00030      0.00059 *
 * Ti              7     -0.00514     -0.00013      0.00056 *
 * Ti              8      0.00147     -0.00008      0.00086 *
 * Ti              9      0.00519      0.00451      0.00463 *
 * Ti             10      0.00843     -0.00444     -0.00434 *
 * Ti             11      0.00499     -0.00446      0.00451 *
 * Ti             12      0.00811      0.00438     -0.00433 *
 * Ti             13      0.00473      0.00449     -0.00452 *
 * Ti             14      0.00819     -0.00440      0.00423 *
 * Ti             15      0.00508     -0.00444     -0.00455 *
 * Ti             16      0.00843      0.00430      0.00431 *
 *                                                          *
 ************************************************************

 ******************** Constrained Forces ********************
 *                                                          *
 *               Cartesian components (eV/A)                *
 * -------------------------------------------------------- *
 *                         x            y            z      *
 *                                                          *
 * Ti              1     -0.02367      0.00009     -0.00062 *
 * Ti              2     -0.01753      0.00009     -0.00089 *
 * Ti              3     -0.00814     -0.00016     -0.00058 *
 * Ti              4      0.00392     -0.00016     -0.00060 *
 * Ti              5     -0.00801      0.00011      0.00074 *
 * Ti              6      0.00394      0.00030      0.00059 *
 * Ti              7     -0.00514     -0.00013      0.00056 *
 * Ti              8      0.00147     -0.00008      0.00086 *
 * Ti              9      0.00519      0.00451      0.00463 *
 * Ti             10      0.00843     -0.00444     -0.00434 *
 * Ti             11      0.00499     -0.00446      0.00451 *
 * Ti             12      0.00811      0.00438     -0.00433 *
 * Ti             13      0.00473      0.00449     -0.00452 *
 * Ti             14      0.00819     -0.00440      0.00423 *
 * Ti             15      0.00508     -0.00444     -0.00455 *
 * Ti             16      0.00843      0.00430      0.00431 *
 *                                                          *
 ************************************************************

 ***************** Stress Tensor *****************
 *                                               *
 *          Cartesian components (GPa)           *
 * --------------------------------------------- *
 *             x             y             z     *
 *                                               *
 *  x      0.058841     -0.000530      0.000097  *
 *  y     -0.000530      0.058105      0.000193  *
 *  z      0.000097      0.000193      0.058818  *
 *                                               *
 *  Pressure:   -0.0586                          *
 *                                               *
 *************************************************

 Pseudo atomic calculation performed for Ti 3s2 3p6 3d2 4s2

 Converged in 31 iterations to a total energy of -1585.9998 eV

Charge spilling parameter for spin component 1 = 0.07%

     Atomic Populations (Mulliken)
     -----------------------------
Species          Ion     s      p      d      f     Total  Charge (e)
=====================================================================
  Ti              1     2.30   6.88   2.82   0.00  12.00     0.00
  Ti              2     2.31   6.88   2.82   0.00  12.00    -0.00
  Ti              3     2.30   6.88   2.82   0.00  12.00     0.00
  Ti              4     2.30   6.88   2.82   0.00  12.00     0.00
  Ti              5     2.30   6.88   2.82   0.00  12.00     0.00
  Ti              6     2.30   6.88   2.82   0.00  12.00    -0.00
  Ti              7     2.30   6.88   2.82   0.00  12.00     0.00
  Ti              8     2.30   6.88   2.82   0.00  12.00    -0.00
  Ti              9     2.30   6.88   2.82   0.00  12.00    -0.00
  Ti             10     2.31   6.88   2.82   0.00  12.00    -0.00
  Ti             11     2.30   6.88   2.82   0.00  12.00    -0.00
  Ti             12     2.31   6.88   2.82   0.00  12.00    -0.00
  Ti             13     2.30   6.88   2.82   0.00  12.00    -0.00
  Ti             14     2.31   6.88   2.82   0.00  12.00     0.00
  Ti             15     2.30   6.88   2.82   0.00  12.00     0.00
  Ti             16     2.31   6.88   2.82   0.00  12.00    -0.00
=====================================================================

                 Bond                   Population      Length (A)
======================================================================
             Ti 1  -- Ti 9                   0.09        2.73584
             Ti 1  -- Ti 13                  0.09        2.73584
             Ti 1  -- Ti 11                  0.09        2.73584
             Ti 1  -- Ti 15                  0.09        2.73584
             Ti 8  -- Ti 16                  0.09        2.74160
             Ti 7  -- Ti 15                  0.09        2.74160
             Ti 6  -- Ti 14                  0.09        2.74160
             Ti 4  -- Ti 12                  0.09        2.74160
             Ti 5  -- Ti 13                  0.09        2.74160
             Ti 3  -- Ti 11                  0.09        2.74160
             Ti 2  -- Ti 10                  0.09        2.74160
             Ti 7  -- Ti 16                  0.09        2.74160
             Ti 6  -- Ti 16                  0.09        2.74160
             Ti 4  -- Ti 16                  0.09        2.74160
             Ti 5  -- Ti 15                  0.09        2.74160
             Ti 5  -- Ti 14                  0.09        2.74160
             Ti 3  -- Ti 15                  0.09        2.74160
             Ti 3  -- Ti 12                  0.09        2.74160
             Ti 2  -- Ti 14                  0.09        2.74160
             Ti 2  -- Ti 12                  0.09        2.74160
             Ti 8  -- Ti 15                  0.09        2.74160
             Ti 8  -- Ti 14                  0.09        2.74160
             Ti 8  -- Ti 12                  0.09        2.74160
             Ti 7  -- Ti 13                  0.09        2.74160
             Ti 7  -- Ti 11                  0.09        2.74160
             Ti 6  -- Ti 13                  0.09        2.74160
             Ti 6  -- Ti 10                  0.09        2.74160
             Ti 5  -- Ti 9                   0.09        2.74160
             Ti 4  -- Ti 11                  0.09        2.74160
             Ti 4  -- Ti 10                  0.09        2.74160
             Ti 3  -- Ti 9                   0.09        2.74160
             Ti 2  -- Ti 9                   0.09        2.74160
             Ti 5  -- Ti 16                  0.09        2.74160
             Ti 3  -- Ti 16                  0.09        2.74160
             Ti 2  -- Ti 16                  0.09        2.74160
             Ti 7  -- Ti 14                  0.09        2.74160
             Ti 7  -- Ti 12                  0.09        2.74160
             Ti 6  -- Ti 15                  0.09        2.74160
             Ti 6  -- Ti 12                  0.09        2.74160
             Ti 5  -- Ti 11                  0.09        2.74160
             Ti 5  -- Ti 10                  0.09        2.74160
             Ti 4  -- Ti 15                  0.09        2.74160
             Ti 4  -- Ti 14                  0.09        2.74160
             Ti 3  -- Ti 13                  0.09        2.74160
             Ti 3  -- Ti 10                  0.09        2.74160
             Ti 2  -- Ti 13                  0.09        2.74160
             Ti 2  -- Ti 11                  0.09        2.74160
             Ti 8  -- Ti 13                  0.09        2.74160
             Ti 8  -- Ti 11                  0.09        2.74160
             Ti 8  -- Ti 10                  0.09        2.74160
             Ti 7  -- Ti 9                   0.09        2.74160
             Ti 6  -- Ti 9                   0.09        2.74160
             Ti 4  -- Ti 9                   0.09        2.74160
             Ti 5  -- Ti 12                  0.09        2.74160
             Ti 3  -- Ti 14                  0.09        2.74160
             Ti 2  -- Ti 15                  0.09        2.74160
             Ti 7  -- Ti 10                  0.09        2.74160
             Ti 6  -- Ti 11                  0.09        2.74160
             Ti 4  -- Ti 13                  0.09        2.74160
             Ti 8  -- Ti 9                   0.09        2.74160
             Ti 1  -- Ti 10                  0.09        2.74739
             Ti 1  -- Ti 14                  0.09        2.74739
             Ti 1  -- Ti 12                  0.09        2.74739
             Ti 1  -- Ti 16                  0.09        2.74739
======================================================================

 
 A BibTeX formatted list of references used in this run has been written to 
 castep.bib
 
Initialisation time =      7.86 s
Calculation time    =    252.72 s
Finalisation time   =      0.04 s
Total time          =    260.62 s
Peak Memory Use     = 882096 kB
  
Overall parallel efficiency rating: Excellent (94%)                             
  
Data was distributed by:-
k-point (32-way); efficiency rating: Excellent (94%)                            
  
Parallel notes:
1) Calculation only took 260.6 s, so efficiency estimates may be inaccurate.    
