2
Lattice="2.8994110329405967 0.06931207158639029 0.0034698719356086416 -1.389679501687558 2.5456131978756513 0.0029462740438942958 0.005510156633746523 0.008583768404590275 4.784396247333861" Properties=species:S:1:pos:R:3:forces:R:3 pbc="T T T" energy=-12.1717434412 stress="0.000536793553751609 0.000361455050829786 0.0007398421528809404 0.000361455050829786 0.0009524787228697042 0.0011371069037669226 0.0007398421528809404 0.0011371069037669226 -0.0018353165940738754" n_minim_iter=8
Ti      -0.03754959       0.02168690       0.00010492      -0.00836036       0.00481255      -0.00042038 
Ti       0.08032201       1.70278447       2.39521401       0.00836036      -0.00481255       0.00042038 
