 +-------------------------------------------------+
 |                                                 |
 |      CCC   AA    SSS  TTTTT  EEEEE  PPPP        |
 |     C     A  A  S       T    E      P   P       |
 |     C     AAAA   SS     T    EEE    PPPP        |
 |     C     A  A     S    T    E      P           |
 |      CCC  A  A  SSS     T    EEEEE  P           |
 |                                                 |
 +-------------------------------------------------+
 |                                                 |
 | Welcome to Academic Release CASTEP version 17.21|          
 | Ab Initio Total Energy Program                  |
 |                                                 |
 | Authors:                                        |
 | M. Segall, M. Probert, C. Pickard, P. Hasnip,   |
 | S. Clark, K. Refson, J. R. Yates, M. Payne      |
 |                                                 |
 | Contributors:                                   |
 | P. Lindan, P. Haynes, J. White, V. Milman,      |
 | N. Govind, M. Gibson, P. Tulip, V. Cocula,      |
 | B. Montanari, D. Quigley, M. Glover,            |
 | L. Bernasconi, A. Perlov, M. Plummer,           |
 | E. McNellis, J. Meyer, J. Gale, D. Jochym       |
 | J. Aarons, B. Walker, R. Gillen, D. Jones       |
 | T. Green, I. J. Bush, C. J. Armstrong,          |
 | E. J. Higgins, E. L. Brown, M. S. McFly,        |
 | J. Wilkins, B-C. Shih, P. J. P. Byrne           |
 |                                                 |
 | Copyright (c) 2000 - 2017                       |
 |                                                 |
 |     Distributed under the terms of an           |
 |     Agreement between the United Kingdom        |
 |     Car-Parrinello (UKCP) Consortium,           |
 |     Daresbury Laboratory and Accelrys, Inc.     |
 |                                                 |
 | Please cite                                     |
 |                                                 |
 |     "First principles methods using CASTEP"     |
 |                                                 |
 |         Zeitschrift fuer Kristallographie       |
 |           220(5-6) pp. 567-570 (2005)           |
 |                                                 |
 | S. J. Clark, M. D. Segall, C. J. Pickard,       |
 | P. J. Hasnip, M. J. Probert, K. Refson,         |
 | M. C. Payne                                     |
 |                                                 |
 |       in all publications arising from          |
 |              your use of CASTEP                 |
 |                                                 |
 +-------------------------------------------------+


 Compiled for linux_x86_64_gfortran6.0-XT on Fri, 21 Jul 2017 10:20:05 +0100
 from code version 056e886bd5a1+ Castep172_branch Mon, 15 May 2017 14:45:35 +0100
 Compiler: GNU Fortran 6.3.0; Optimisation: fast
 MATHLIBS: Intel MKL(2017.0.0) (LAPACK version 3.6.0)
 FFT Lib : fftw3 version commercial-fftw-3.3.4-sse2-avx
 Fundamental constants values: CODATA 2010

 Run started: Fri, 20 Sep 2019 15:49:46 +0100

 Atomic calculation performed for Ti: 1s2 2s2 2p6 3s2 3p6 3d2 4s2

 Converged in 78 iterations to an ae energy of -23176.516 eV

   ============================================================                
   | Pseudopotential Report - Date of generation 20-09-2019   |                
   ------------------------------------------------------------                
   | Element: Ti Ionic charge: 12.00 Level of theory: LDA     |                
   | Atomic Solver: Koelling-Harmon                           |                
   |                                                          |                
   |               Reference Electronic Structure             |                
   |         Orbital         Occupation         Energy        |                
   |            3s              2.000           -2.288        |                
   |            3p              6.000           -1.425        |                
   |            4s              2.000           -0.169        |                
   |            3d              2.000           -0.164        |                
   |                                                          |                
   |                 Pseudopotential Definition               |                
   |        Beta     l      e      Rc     scheme   norm       |                
   |          1      0   -2.288   1.793     qc      0         |                
   |          2      0   -0.169   1.793     qc      0         |                
   |          3      0    0.250   1.793     qc      0         |                
   |          4      1   -1.425   1.793     qc      0         |                
   |          5      1    0.250   1.793     qc      0         |                
   |          6      2   -0.164   1.793     qc      0         |                
   |          7      2    0.250   1.793     qc      0         |                
   |         loc     3    0.000   1.793     pn      0         |                
   |                                                          |                
   | Augmentation charge Rinner = 1.263                       |                
   | Partial core correction Rc = 1.263                       |                
   ------------------------------------------------------------                
   | "3|1.8|9|10|11|30U:40:31:32(qc=5.5)"                     |                
   ------------------------------------------------------------                
   |      Author: Chris J. Pickard, Cambridge University      |                
   ============================================================                

 Pseudo atomic calculation performed for Ti 3s2 3p6 3d2 4s2

 Converged in 31 iterations to a total energy of -1585.9998 eV

 Calculation parallelised over 48 processes.
 Data is distributed by G-vector(3-way) and k-point(16-way)

 ************************************ Title ************************************
 

 ***************************** General Parameters ******************************
  
 output verbosity                               : normal  (1)
 write checkpoint data to                       : castep.check
 type of calculation                            : single point energy
 stress calculation                             : on
 density difference calculation                 : off
 electron localisation func (ELF) calculation   : off
 Hirshfeld analysis                             : off
 unlimited duration calculation
 timing information                             : on
 memory usage estimate                          : on
 write final potential to formatted file        : off
 write final density to formatted file          : off
 write BibTeX reference list                    : on
 write OTFG pseudopotential files               : on
 write electrostatic potential file             : on
 write bands file                               : on
 checkpoint writing                             : off
  
 output         length unit                     : A
 output           mass unit                     : amu
 output           time unit                     : ps
 output         charge unit                     : e
 output           spin unit                     : hbar/2
 output         energy unit                     : eV
 output          force unit                     : eV/A
 output       velocity unit                     : A/ps
 output       pressure unit                     : GPa
 output     inv_length unit                     : 1/A
 output      frequency unit                     : cm-1
 output force constant unit                     : eV/A**2
 output         volume unit                     : A**3
 output   IR intensity unit                     : (D/A)**2/amu
 output         dipole unit                     : D
 output         efield unit                     : eV/A/e
 output        entropy unit                     : J/mol/K
  
 wavefunctions paging                           : none
 random number generator seed                   : randomised (154947913)
 data distribution                              : optimal for this architecture
 optimization strategy                          : balance speed and memory

 *********************** Exchange-Correlation Parameters ***********************
  
 using functional                               : Local Density Approximation
 relativistic treatment                         : Koelling-Harmon
 DFT+D: Semi-empirical dispersion correction    : off

 ************************* Pseudopotential Parameters **************************
  
 pseudopotential representation                 : reciprocal space
 <beta|phi> representation                      : reciprocal space
 spin-orbit coupling                            : off

 **************************** Basis Set Parameters *****************************
  
 plane wave basis set cut-off                   :   600.0000   eV
 size of standard grid                          :     1.7500
 size of   fine   gmax                          :    21.9610   1/A
 finite basis set correction                    : automatic
 number of sample energies                      :          3
           sample  spacing                      :     5.0000   eV

 **************************** Electronic Parameters ****************************
  
 number of  electrons                           :  648.0    
 net charge of system                           :  0.000    
 treating system as non-spin-polarized
 number of bands                                :        389

 ********************* Electronic Minimization Parameters **********************
  
 Method: Treating system as metallic with density mixing treatment of electrons,
         and number of  SD  steps               :          1
         and number of  CG  steps               :          4
  
 total energy / atom convergence tol.           : 0.1000E-04   eV
 eigen-energy convergence tolerance             : 0.1000E-05   eV
 max force / atom convergence tol.              : ignored
 convergence tolerance window                   :          3   cycles
 max. number of SCF cycles                      :        250
 number of fixed-spin iterations                :         10
 smearing scheme                                : Gaussian
 smearing width                                 : 0.1000       eV
 Fermi energy convergence tolerance             : 0.2721E-13   eV
 periodic dipole correction                     : NONE

 ************************** Density Mixing Parameters **************************
  
 density-mixing scheme                          : Pulay
 max. length of mixing history                  :         20
 charge density mixing amplitude                : 0.8000    
 cut-off energy for mixing                      :  600.0       eV

 *********************** Population Analysis Parameters ************************
  
 Population analysis with cutoff                :  3.000       A

 *******************************************************************************
  

                           -------------------------------
                                      Unit Cell
                           -------------------------------
        Real Lattice(A)                      Reciprocal Lattice(1/A)
   8.5763590   0.0000000   0.0000000        0.7326169   0.4229765   0.0000000
  -4.2881790   7.4273440   0.0000000        0.0000000   0.8459532   0.0000000
   0.0000000   0.0000000  13.5844380        0.0000000   0.0000000   0.4625282

                       Lattice parameters(A)       Cell Angles
                    a =    8.576359          alpha =   90.000000
                    b =    8.576358          beta  =   90.000000
                    c =   13.584438          gamma =  120.000000

                       Current cell volume =  865.322840       A**3
                                   density =    2.987114   AMU/A**3
                                           =    4.960219     g/cm^3

                           -------------------------------
                                     Cell Contents
                           -------------------------------
                         Total number of ions in cell =   54
                      Total number of species in cell =    1
                        Max number of any one species =   54

            xxxxxxxxxxxxxxxxxxxxxxxxxxxxxxxxxxxxxxxxxxxxxxxxxxxxxxxxxxxx
            x  Element    Atom        Fractional coordinates of atoms  x
            x            Number           u          v          w      x
            x----------------------------------------------------------x
            x  Ti           1         0.000622   0.000000   0.000622   x 
            x  Ti           2         0.333333   0.000000   0.000000   x 
            x  Ti           3         0.666667   0.000000   0.000000   x 
            x  Ti           4        -0.000000   0.333333   0.000000   x 
            x  Ti           5         0.333333   0.333333   0.000000   x 
            x  Ti           6         0.666667   0.333333   0.000000   x 
            x  Ti           7         0.000000   0.666667   0.000000   x 
            x  Ti           8         0.333333   0.666667   0.000000   x 
            x  Ti           9         0.666667   0.666667   0.000000   x 
            x  Ti          10         0.000000   0.000000   0.333333   x 
            x  Ti          11         0.333333   0.000000   0.333333   x 
            x  Ti          12         0.666667   0.000000   0.333333   x 
            x  Ti          13        -0.000000   0.333333   0.333333   x 
            x  Ti          14         0.333333   0.333333   0.333333   x 
            x  Ti          15         0.666667   0.333333   0.333333   x 
            x  Ti          16         0.000000   0.666667   0.333333   x 
            x  Ti          17         0.333333   0.666667   0.333333   x 
            x  Ti          18         0.666667   0.666667   0.333333   x 
            x  Ti          19         0.000000   0.000000   0.666667   x 
            x  Ti          20         0.333333   0.000000   0.666667   x 
            x  Ti          21         0.666667   0.000000   0.666667   x 
            x  Ti          22        -0.000000   0.333333   0.666667   x 
            x  Ti          23         0.333333   0.333333   0.666667   x 
            x  Ti          24         0.666667   0.333333   0.666667   x 
            x  Ti          25         0.000000   0.666667   0.666667   x 
            x  Ti          26         0.333333   0.666667   0.666667   x 
            x  Ti          27         0.666667   0.666667   0.666667   x 
            x  Ti          28         0.111111   0.222222   0.166667   x 
            x  Ti          29         0.444444   0.222222   0.166667   x 
            x  Ti          30         0.777778   0.222222   0.166667   x 
            x  Ti          31         0.111111   0.555556   0.166667   x 
            x  Ti          32         0.444444   0.555556   0.166667   x 
            x  Ti          33         0.777778   0.555556   0.166667   x 
            x  Ti          34         0.111111   0.888889   0.166667   x 
            x  Ti          35         0.444444   0.888889   0.166667   x 
            x  Ti          36         0.777778   0.888889   0.166667   x 
            x  Ti          37         0.111111   0.222222   0.500000   x 
            x  Ti          38         0.444444   0.222222   0.500000   x 
            x  Ti          39         0.777778   0.222222   0.500000   x 
            x  Ti          40         0.111111   0.555556   0.500000   x 
            x  Ti          41         0.444444   0.555556   0.500000   x 
            x  Ti          42         0.777778   0.555556   0.500000   x 
            x  Ti          43         0.111111   0.888889   0.500000   x 
            x  Ti          44         0.444444   0.888889   0.500000   x 
            x  Ti          45         0.777778   0.888889   0.500000   x 
            x  Ti          46         0.111111   0.222222   0.833333   x 
            x  Ti          47         0.444444   0.222222   0.833333   x 
            x  Ti          48         0.777778   0.222222   0.833333   x 
            x  Ti          49         0.111111   0.555556   0.833333   x 
            x  Ti          50         0.444444   0.555556   0.833333   x 
            x  Ti          51         0.777778   0.555556   0.833333   x 
            x  Ti          52         0.111111   0.888889   0.833333   x 
            x  Ti          53         0.444444   0.888889   0.833333   x 
            x  Ti          54         0.777778   0.888889   0.833333   x 
            xxxxxxxxxxxxxxxxxxxxxxxxxxxxxxxxxxxxxxxxxxxxxxxxxxxxxxxxxxxx


                         No user defined ionic velocities

                           -------------------------------
                                   Details of Species
                           -------------------------------

                               Mass of species in AMU
                                    Ti   47.8670000

                          Electric Quadrupole Moment (Barn)
                                    Ti    0.3020000 Isotope 47

                          Files used for pseudopotentials:
                                    Ti 3|1.8|9|10|11|30U:40:31:32(qc=5.5)

                           -------------------------------
                              k-Points For BZ Sampling
                           -------------------------------
                       MP grid size for SCF calculation is  4  4  2
                            with an offset of   0.000  0.000  0.000
                       Number of kpoints used =            16

                           -------------------------------
                               Symmetry and Constraints
                           -------------------------------

                      Maximum deviation from symmetry =  0.00000         ANG

                      Number of symmetry operations   =           1
                      Number of ionic constraints     =           3
                      Point group of crystal =     1: C1, 1, 1
                      Space group of crystal =     1: P1, P 1

             Set iprint > 1 for details on symmetry rotations/translations

                         Centre of mass is constrained
             Set iprint > 1 for details of linear ionic constraints

                         Number of cell constraints= 0
                         Cell constraints are:  1 2 3 4 5 6

                         External pressure/stress (GPa)
                          0.00000   0.00000   0.00000
                                    0.00000   0.00000
                                              0.00000
  
+---------------- MEMORY AND SCRATCH DISK ESTIMATES PER PROCESS --------------+
|                                                     Memory          Disk    |
| Baseline code, static data and system overhead      172.0 MB         0.0 MB |
| BLAS internal memory storage                          0.0 MB         0.0 MB |
| Model and support data                              265.7 MB       168.9 MB |
| Electronic energy minimisation requirements         294.4 MB         0.0 MB |
| Force calculation requirements                       17.0 MB         0.0 MB |
| Stress calculation requirements                      18.8 MB         0.0 MB |
|                                               ----------------------------- |
| Approx. total storage required per process          732.1 MB       168.9 MB |
|                                                                             |
| Requirements will fluctuate during execution and may exceed these estimates |
+-----------------------------------------------------------------------------+
Calculating finite basis set correction with  3 cut-off energies.
Calculating total energy with cut-off of  590.000 eV.
------------------------------------------------------------------------ <-- SCF
SCF loop      Energy           Fermi           Energy gain       Timer   <-- SCF
                               energy          per atom          (sec)   <-- SCF
------------------------------------------------------------------------ <-- SCF
Initial  -7.81849844E+004  0.00000000E+000                        20.45  <-- SCF
      1  -8.39519622E+004  1.16691095E+001   1.06795886E+002     115.73  <-- SCF
      2  -8.59428671E+004  1.02259653E+001   3.68686085E+001     184.73  <-- SCF
      3  -8.60602412E+004  9.97296262E+000   2.17359446E+000     265.37  <-- SCF
      4  -8.60591021E+004  9.22119426E+000  -2.10936365E-002     343.55  <-- SCF
      5  -8.60573423E+004  9.47252840E+000  -3.25891691E-002     439.12  <-- SCF
      6  -8.60579590E+004  9.45018890E+000   1.14204121E-002     527.04  <-- SCF
      7  -8.60574790E+004  9.44966502E+000  -8.88926436E-003     608.08  <-- SCF
      8  -8.60574878E+004  9.45111856E+000   1.62010139E-004     682.65  <-- SCF
      9  -8.60574850E+004  9.45443852E+000  -5.18957094E-005     753.63  <-- SCF
     10  -8.60574849E+004  9.45479795E+000  -1.45011848E-006     819.43  <-- SCF
     11  -8.60574846E+004  9.45465751E+000  -5.08700380E-006     875.24  <-- SCF
------------------------------------------------------------------------ <-- SCF
 
Final energy, E             =  -86057.22124868     eV
Final free energy (E-TS)    =  -86057.48460281     eV
(energies not corrected for finite basis set)
 
NB est. 0K energy (E-0.5TS)      =  -86057.35292574     eV
 
Calculating total energy with cut-off of  595.000 eV.
------------------------------------------------------------------------ <-- SCF
SCF loop      Energy           Fermi           Energy gain       Timer   <-- SCF
                               energy          per atom          (sec)   <-- SCF
------------------------------------------------------------------------ <-- SCF
Initial  -8.60572210E+004  0.00000000E+000                       890.52  <-- SCF
      1  -8.60574902E+004  9.45448881E+000   4.98673794E-003     972.83  <-- SCF
      2  -8.60574903E+004  9.45448815E+000   1.41808989E-006    1029.22  <-- SCF
      3  -8.60575909E+004  9.45317778E+000   1.86232446E-003    1110.62  <-- SCF
      4  -8.60574840E+004  9.45481677E+000  -1.97935642E-003    1191.91  <-- SCF
      5  -8.60574855E+004  9.45473920E+000   2.71983307E-005    1266.17  <-- SCF
      6  -8.60574855E+004  9.45460519E+000  -6.46149558E-008    1323.09  <-- SCF
      7  -8.60574855E+004  9.45459683E+000  -1.29707010E-007    1375.74  <-- SCF
------------------------------------------------------------------------ <-- SCF
 
Final energy, E             =  -86057.22210094     eV
Final free energy (E-TS)    =  -86057.48545852     eV
(energies not corrected for finite basis set)
 
NB est. 0K energy (E-0.5TS)      =  -86057.35377973     eV
 
Calculating total energy with cut-off of  600.000 eV.
------------------------------------------------------------------------ <-- SCF
SCF loop      Energy           Fermi           Energy gain       Timer   <-- SCF
                               energy          per atom          (sec)   <-- SCF
------------------------------------------------------------------------ <-- SCF
Initial  -8.60572220E+004  0.00000000E+000                      1390.95  <-- SCF
      1  -8.60574891E+004  9.45454643E+000   4.94700137E-003    1473.21  <-- SCF
      2  -8.60574892E+004  9.45454618E+000   7.09217954E-007    1526.30  <-- SCF
      3  -8.60575517E+004  9.45323118E+000   1.15749345E-003    1608.53  <-- SCF
      4  -8.60574857E+004  9.45470798E+000  -1.22211845E-003    1692.08  <-- SCF
      5  -8.60574863E+004  9.45466952E+000   1.11825710E-005    1762.29  <-- SCF
      6  -8.60574862E+004  9.45460070E+000  -8.00091186E-007    1817.94  <-- SCF
      7  -8.60574862E+004  9.45460186E+000   6.54105778E-008    1870.04  <-- SCF
------------------------------------------------------------------------ <-- SCF
 
Final energy, E             =  -86057.22288006     eV
Final free energy (E-TS)    =  -86057.48623710     eV
(energies not corrected for finite basis set)
 
NB est. 0K energy (E-0.5TS)      =  -86057.35455858     eV
 
 For future reference: finite basis dEtot/dlog(Ecut) =      -0.097524eV
 Total energy corrected for finite basis set =  -86057.486236 eV

 ******************* Unconstrained Forces *******************
 *                                                          *
 *               Cartesian components (eV/A)                *
 * -------------------------------------------------------- *
 *                         x            y            z      *
 *                                                          *
 * Ti              1     -0.02899     -0.00290     -0.06015 *
 * Ti              2      0.01460     -0.00660      0.00013 *
 * Ti              3      0.01392     -0.00040      0.00050 *
 * Ti              4      0.00941     -0.00988     -0.00031 *
 * Ti              5      0.00853      0.00297     -0.00049 *
 * Ti              6      0.00689     -0.00410     -0.00075 *
 * Ti              7      0.00953     -0.00318      0.00041 *
 * Ti              8      0.00773     -0.00371     -0.00074 *
 * Ti              9      0.00783     -0.00371      0.00051 *
 * Ti             10      0.00387     -0.00383      0.00751 *
 * Ti             11      0.00722     -0.00437      0.00014 *
 * Ti             12      0.00705     -0.00360      0.00065 *
 * Ti             13      0.00568     -0.00288      0.00058 *
 * Ti             14      0.00553     -0.00294      0.00095 *
 * Ti             15      0.00725     -0.00286      0.00094 *
 * Ti             16      0.00674     -0.00504      0.00063 *
 * Ti             17      0.00488     -0.00381      0.00065 *
 * Ti             18      0.00671     -0.00264      0.00141 *
 * Ti             19      0.00509     -0.00324      0.00848 *
 * Ti             20      0.00660     -0.00263      0.00128 *
 * Ti             21      0.00663     -0.00326      0.00055 *
 * Ti             22      0.00608     -0.00366      0.00140 *
 * Ti             23      0.00637     -0.00371      0.00201 *
 * Ti             24      0.00565     -0.00355      0.00056 *
 * Ti             25      0.00585     -0.00439      0.00055 *
 * Ti             26      0.00586     -0.00381      0.00085 *
 * Ti             27      0.00645     -0.00343      0.00036 *
 * Ti             28     -0.00702      0.01299      0.00637 *
 * Ti             29     -0.00927      0.00198     -0.00474 *
 * Ti             30     -0.00537      0.00254     -0.00172 *
 * Ti             31     -0.00615      0.00369     -0.00073 *
 * Ti             32     -0.00624      0.00349     -0.00162 *
 * Ti             33     -0.00688      0.00589     -0.00274 *
 * Ti             34      0.00577     -0.00367      0.01181 *
 * Ti             35     -0.00648      0.00360     -0.00162 *
 * Ti             36     -0.01074      0.00154      0.00081 *
 * Ti             37     -0.00707      0.00383      0.00149 *
 * Ti             38     -0.00535      0.00409      0.00386 *
 * Ti             39     -0.00601      0.00401      0.00285 *
 * Ti             40     -0.00655      0.00345      0.00008 *
 * Ti             41     -0.00598      0.00395      0.00071 *
 * Ti             42     -0.00567      0.00357      0.00291 *
 * Ti             43     -0.00642      0.00243      0.00212 *
 * Ti             44     -0.00570      0.00324      0.00084 *
 * Ti             45     -0.00600      0.00326      0.00152 *
 * Ti             46     -0.00542     -0.00498      0.00664 *
 * Ti             47     -0.00656      0.00451     -0.00190 *
 * Ti             48     -0.00922      0.00475     -0.00384 *
 * Ti             49     -0.00466      0.00367     -0.00066 *
 * Ti             50     -0.00689      0.00213     -0.00037 *
 * Ti             51     -0.00757      0.00080     -0.00295 *
 * Ti             52     -0.00969      0.00681      0.00104 *
 * Ti             53     -0.00710      0.00311     -0.00058 *
 * Ti             54      0.00528      0.01049      0.01183 *
 *                                                          *
 ************************************************************

 ******************** Constrained Forces ********************
 *                                                          *
 *               Cartesian components (eV/A)                *
 * -------------------------------------------------------- *
 *                         x            y            z      *
 *                                                          *
 * Ti              1     -0.02899     -0.00290     -0.06015 *
 * Ti              2      0.01460     -0.00660      0.00013 *
 * Ti              3      0.01392     -0.00040      0.00050 *
 * Ti              4      0.00941     -0.00988     -0.00031 *
 * Ti              5      0.00853      0.00297     -0.00049 *
 * Ti              6      0.00689     -0.00410     -0.00075 *
 * Ti              7      0.00953     -0.00318      0.00041 *
 * Ti              8      0.00773     -0.00371     -0.00074 *
 * Ti              9      0.00783     -0.00371      0.00051 *
 * Ti             10      0.00387     -0.00383      0.00751 *
 * Ti             11      0.00722     -0.00437      0.00014 *
 * Ti             12      0.00705     -0.00360      0.00065 *
 * Ti             13      0.00568     -0.00288      0.00058 *
 * Ti             14      0.00553     -0.00294      0.00095 *
 * Ti             15      0.00725     -0.00286      0.00094 *
 * Ti             16      0.00674     -0.00504      0.00063 *
 * Ti             17      0.00488     -0.00381      0.00065 *
 * Ti             18      0.00671     -0.00264      0.00141 *
 * Ti             19      0.00509     -0.00324      0.00848 *
 * Ti             20      0.00660     -0.00263      0.00128 *
 * Ti             21      0.00663     -0.00326      0.00055 *
 * Ti             22      0.00608     -0.00366      0.00140 *
 * Ti             23      0.00637     -0.00371      0.00201 *
 * Ti             24      0.00565     -0.00355      0.00056 *
 * Ti             25      0.00585     -0.00439      0.00055 *
 * Ti             26      0.00586     -0.00381      0.00085 *
 * Ti             27      0.00645     -0.00343      0.00036 *
 * Ti             28     -0.00702      0.01299      0.00637 *
 * Ti             29     -0.00927      0.00198     -0.00474 *
 * Ti             30     -0.00537      0.00254     -0.00172 *
 * Ti             31     -0.00615      0.00369     -0.00073 *
 * Ti             32     -0.00624      0.00349     -0.00162 *
 * Ti             33     -0.00688      0.00589     -0.00274 *
 * Ti             34      0.00577     -0.00367      0.01181 *
 * Ti             35     -0.00648      0.00360     -0.00162 *
 * Ti             36     -0.01074      0.00154      0.00081 *
 * Ti             37     -0.00707      0.00383      0.00149 *
 * Ti             38     -0.00535      0.00409      0.00386 *
 * Ti             39     -0.00601      0.00401      0.00285 *
 * Ti             40     -0.00655      0.00345      0.00008 *
 * Ti             41     -0.00598      0.00395      0.00071 *
 * Ti             42     -0.00567      0.00357      0.00291 *
 * Ti             43     -0.00642      0.00243      0.00212 *
 * Ti             44     -0.00570      0.00324      0.00084 *
 * Ti             45     -0.00600      0.00326      0.00152 *
 * Ti             46     -0.00542     -0.00498      0.00664 *
 * Ti             47     -0.00656      0.00451     -0.00190 *
 * Ti             48     -0.00922      0.00475     -0.00384 *
 * Ti             49     -0.00466      0.00367     -0.00066 *
 * Ti             50     -0.00689      0.00213     -0.00037 *
 * Ti             51     -0.00757      0.00080     -0.00295 *
 * Ti             52     -0.00969      0.00681      0.00104 *
 * Ti             53     -0.00710      0.00311     -0.00058 *
 * Ti             54      0.00528      0.01049      0.01183 *
 *                                                          *
 ************************************************************

 ***************** Stress Tensor *****************
 *                                               *
 *          Cartesian components (GPa)           *
 * --------------------------------------------- *
 *             x             y             z     *
 *                                               *
 *  x     -0.715866      0.172813      0.000327  *
 *  y      0.172813     -0.518981     -0.000207  *
 *  z      0.000327     -0.000207     -0.483480  *
 *                                               *
 *  Pressure:    0.5728                          *
 *                                               *
 *************************************************

 Pseudo atomic calculation performed for Ti 3s2 3p6 3d2 4s2

 Converged in 31 iterations to a total energy of -1585.9998 eV

Charge spilling parameter for spin component 1 = 0.07%

     Atomic Populations (Mulliken)
     -----------------------------
Species          Ion     s      p      d      f     Total  Charge (e)
=====================================================================
  Ti              1     2.31   6.92   2.77   0.00  12.00    -0.00
  Ti              2     2.31   6.92   2.77   0.00  12.00     0.00
  Ti              3     2.31   6.92   2.77   0.00  12.00     0.00
  Ti              4     2.31   6.92   2.77   0.00  12.00     0.00
  Ti              5     2.31   6.92   2.77   0.00  12.00     0.00
  Ti              6     2.31   6.92   2.77   0.00  12.00     0.00
  Ti              7     2.31   6.92   2.77   0.00  12.00    -0.00
  Ti              8     2.31   6.92   2.77   0.00  12.00     0.00
  Ti              9     2.31   6.92   2.77   0.00  12.00    -0.00
  Ti             10     2.31   6.92   2.77   0.00  12.00    -0.00
  Ti             11     2.31   6.92   2.77   0.00  12.00    -0.00
  Ti             12     2.31   6.92   2.77   0.00  12.00    -0.00
  Ti             13     2.31   6.92   2.77   0.00  12.00     0.00
  Ti             14     2.31   6.92   2.77   0.00  12.00    -0.00
  Ti             15     2.31   6.92   2.77   0.00  12.00    -0.00
  Ti             16     2.31   6.92   2.77   0.00  12.00     0.00
  Ti             17     2.31   6.92   2.77   0.00  12.00     0.00
  Ti             18     2.31   6.92   2.77   0.00  12.00    -0.00
  Ti             19     2.31   6.92   2.77   0.00  12.00    -0.00
  Ti             20     2.31   6.92   2.77   0.00  12.00     0.00
  Ti             21     2.31   6.92   2.77   0.00  12.00    -0.00
  Ti             22     2.31   6.92   2.77   0.00  12.00     0.00
  Ti             23     2.31   6.92   2.77   0.00  12.00     0.00
  Ti             24     2.31   6.92   2.77   0.00  12.00     0.00
  Ti             25     2.31   6.92   2.77   0.00  12.00     0.00
  Ti             26     2.31   6.92   2.77   0.00  12.00    -0.00
  Ti             27     2.31   6.92   2.77   0.00  12.00    -0.00
  Ti             28     2.31   6.92   2.77   0.00  12.00     0.00
  Ti             29     2.31   6.92   2.77   0.00  12.00    -0.00
  Ti             30     2.31   6.92   2.77   0.00  12.00     0.00
  Ti             31     2.31   6.92   2.77   0.00  12.00     0.00
  Ti             32     2.31   6.92   2.77   0.00  12.00    -0.00
  Ti             33     2.31   6.92   2.77   0.00  12.00    -0.00
  Ti             34     2.31   6.92   2.77   0.00  12.00     0.00
  Ti             35     2.31   6.92   2.77   0.00  12.00    -0.00
  Ti             36     2.31   6.92   2.77   0.00  12.00     0.00
  Ti             37     2.31   6.92   2.77   0.00  12.00    -0.00
  Ti             38     2.31   6.92   2.77   0.00  12.00    -0.00
  Ti             39     2.31   6.92   2.77   0.00  12.00     0.00
  Ti             40     2.31   6.92   2.77   0.00  12.00     0.00
  Ti             41     2.31   6.92   2.77   0.00  12.00     0.00
  Ti             42     2.31   6.92   2.77   0.00  12.00     0.00
  Ti             43     2.31   6.92   2.77   0.00  12.00    -0.00
  Ti             44     2.31   6.92   2.77   0.00  12.00     0.00
  Ti             45     2.31   6.92   2.77   0.00  12.00     0.00
  Ti             46     2.31   6.92   2.77   0.00  12.00     0.00
  Ti             47     2.31   6.92   2.77   0.00  12.00     0.00
  Ti             48     2.31   6.92   2.77   0.00  12.00    -0.00
  Ti             49     2.31   6.92   2.77   0.00  12.00     0.00
  Ti             50     2.31   6.92   2.77   0.00  12.00     0.00
  Ti             51     2.31   6.92   2.77   0.00  12.00    -0.00
  Ti             52     2.31   6.92   2.77   0.00  12.00     0.00
  Ti             53     2.31   6.92   2.77   0.00  12.00    -0.00
  Ti             54     2.31   6.92   2.77   0.00  12.00    -0.00
=====================================================================

                 Bond                   Population      Length (A)
======================================================================
             Ti 1  -- Ti 34                  0.11        2.79227
             Ti 1  -- Ti 28                  0.11        2.79501
             Ti 1  -- Ti 36                  0.11        2.79773
             Ti 19 -- Ti 43                  0.11        2.80183
             Ti 10 -- Ti 34                  0.11        2.80183
             Ti 19 -- Ti 52                  0.11        2.80183
             Ti 10 -- Ti 43                  0.11        2.80183
             Ti 25 -- Ti 40                  0.11        2.80183
             Ti 16 -- Ti 31                  0.11        2.80183
             Ti 7  -- Ti 31                  0.11        2.80183
             Ti 25 -- Ti 49                  0.11        2.80183
             Ti 16 -- Ti 40                  0.11        2.80183
             Ti 7  -- Ti 49                  0.11        2.80183
             Ti 24 -- Ti 39                  0.11        2.80183
             Ti 20 -- Ti 44                  0.11        2.80183
             Ti 23 -- Ti 38                  0.11        2.80183
             Ti 22 -- Ti 37                  0.11        2.80183
             Ti 21 -- Ti 45                  0.11        2.80183
             Ti 15 -- Ti 30                  0.11        2.80183
             Ti 11 -- Ti 35                  0.11        2.80183
             Ti 6  -- Ti 30                  0.11        2.80183
             Ti 2  -- Ti 35                  0.11        2.80183
             Ti 14 -- Ti 29                  0.11        2.80183
             Ti 13 -- Ti 28                  0.11        2.80183
             Ti 12 -- Ti 36                  0.11        2.80183
             Ti 5  -- Ti 29                  0.11        2.80183
             Ti 4  -- Ti 28                  0.11        2.80183
             Ti 3  -- Ti 36                  0.11        2.80183
             Ti 24 -- Ti 48                  0.11        2.80183
             Ti 20 -- Ti 53                  0.11        2.80183
             Ti 15 -- Ti 39                  0.11        2.80183
             Ti 11 -- Ti 44                  0.11        2.80183
             Ti 6  -- Ti 48                  0.11        2.80183
             Ti 2  -- Ti 53                  0.11        2.80183
             Ti 23 -- Ti 47                  0.11        2.80183
             Ti 22 -- Ti 46                  0.11        2.80183
             Ti 21 -- Ti 54                  0.11        2.80183
             Ti 14 -- Ti 38                  0.11        2.80183
             Ti 13 -- Ti 37                  0.11        2.80183
             Ti 12 -- Ti 45                  0.11        2.80183
             Ti 5  -- Ti 47                  0.11        2.80183
             Ti 4  -- Ti 46                  0.11        2.80183
             Ti 3  -- Ti 54                  0.11        2.80183
             Ti 27 -- Ti 42                  0.11        2.80183
             Ti 26 -- Ti 41                  0.11        2.80183
             Ti 18 -- Ti 33                  0.11        2.80183
             Ti 17 -- Ti 32                  0.11        2.80183
             Ti 9  -- Ti 33                  0.11        2.80183
             Ti 8  -- Ti 32                  0.11        2.80183
             Ti 27 -- Ti 51                  0.11        2.80183
             Ti 26 -- Ti 50                  0.11        2.80183
             Ti 18 -- Ti 42                  0.11        2.80183
             Ti 17 -- Ti 41                  0.11        2.80183
             Ti 9  -- Ti 51                  0.11        2.80183
             Ti 8  -- Ti 50                  0.11        2.80183
             Ti 23 -- Ti 37                  0.11        2.80183
             Ti 21 -- Ti 44                  0.11        2.80183
             Ti 24 -- Ti 38                  0.11        2.80183
             Ti 12 -- Ti 35                  0.11        2.80183
             Ti 3  -- Ti 35                  0.11        2.80183
             Ti 14 -- Ti 28                  0.11        2.80183
             Ti 5  -- Ti 28                  0.11        2.80183
             Ti 15 -- Ti 29                  0.11        2.80183
             Ti 6  -- Ti 29                  0.11        2.80183
             Ti 23 -- Ti 46                  0.11        2.80183
             Ti 21 -- Ti 53                  0.11        2.80183
             Ti 14 -- Ti 37                  0.11        2.80183
             Ti 12 -- Ti 44                  0.11        2.80183
             Ti 5  -- Ti 46                  0.11        2.80183
             Ti 3  -- Ti 53                  0.11        2.80183
             Ti 24 -- Ti 47                  0.11        2.80183
             Ti 15 -- Ti 38                  0.11        2.80183
             Ti 6  -- Ti 47                  0.11        2.80183
             Ti 27 -- Ti 41                  0.11        2.80183
             Ti 18 -- Ti 32                  0.11        2.80183
             Ti 9  -- Ti 32                  0.11        2.80183
             Ti 27 -- Ti 50                  0.11        2.80183
             Ti 18 -- Ti 41                  0.11        2.80183
             Ti 9  -- Ti 50                  0.11        2.80183
             Ti 22 -- Ti 39                  0.11        2.80183
             Ti 20 -- Ti 43                  0.11        2.80183
             Ti 19 -- Ti 45                  0.11        2.80183
             Ti 11 -- Ti 34                  0.11        2.80183
             Ti 10 -- Ti 36                  0.11        2.80183
             Ti 2  -- Ti 34                  0.11        2.80183
             Ti 13 -- Ti 30                  0.11        2.80183
             Ti 4  -- Ti 30                  0.11        2.80183
             Ti 20 -- Ti 52                  0.11        2.80183
             Ti 19 -- Ti 54                  0.11        2.80183
             Ti 11 -- Ti 43                  0.11        2.80183
             Ti 10 -- Ti 45                  0.11        2.80183
             Ti 2  -- Ti 52                  0.11        2.80183
             Ti 22 -- Ti 48                  0.11        2.80183
             Ti 13 -- Ti 39                  0.11        2.80183
             Ti 4  -- Ti 48                  0.11        2.80183
             Ti 24 -- Ti 42                  0.11        2.80183
             Ti 23 -- Ti 41                  0.11        2.80183
             Ti 27 -- Ti 45                  0.11        2.80183
             Ti 26 -- Ti 44                  0.11        2.80183
             Ti 21 -- Ti 39                  0.11        2.80183
             Ti 20 -- Ti 38                  0.11        2.80183
             Ti 19 -- Ti 37                  0.11        2.80183
             Ti 15 -- Ti 33                  0.11        2.80183
             Ti 14 -- Ti 32                  0.11        2.80183
             Ti 6  -- Ti 33                  0.11        2.80183
             Ti 5  -- Ti 32                  0.11        2.80183
             Ti 18 -- Ti 36                  0.11        2.80183
             Ti 17 -- Ti 35                  0.11        2.80183
             Ti 12 -- Ti 30                  0.11        2.80183
             Ti 11 -- Ti 29                  0.11        2.80183
             Ti 10 -- Ti 28                  0.11        2.80183
             Ti 9  -- Ti 36                  0.11        2.80183
             Ti 8  -- Ti 35                  0.11        2.80183
             Ti 3  -- Ti 30                  0.11        2.80183
             Ti 2  -- Ti 29                  0.11        2.80183
             Ti 24 -- Ti 51                  0.11        2.80183
             Ti 23 -- Ti 50                  0.11        2.80183
             Ti 15 -- Ti 42                  0.11        2.80183
             Ti 14 -- Ti 41                  0.11        2.80183
             Ti 6  -- Ti 51                  0.11        2.80183
             Ti 5  -- Ti 50                  0.11        2.80183
             Ti 21 -- Ti 48                  0.11        2.80183
             Ti 20 -- Ti 47                  0.11        2.80183
             Ti 19 -- Ti 46                  0.11        2.80183
             Ti 12 -- Ti 39                  0.11        2.80183
             Ti 11 -- Ti 38                  0.11        2.80183
             Ti 10 -- Ti 37                  0.11        2.80183
             Ti 3  -- Ti 48                  0.11        2.80183
             Ti 2  -- Ti 47                  0.11        2.80183
             Ti 27 -- Ti 54                  0.11        2.80183
             Ti 26 -- Ti 53                  0.11        2.80183
             Ti 18 -- Ti 45                  0.11        2.80183
             Ti 17 -- Ti 44                  0.11        2.80183
             Ti 9  -- Ti 54                  0.11        2.80183
             Ti 8  -- Ti 53                  0.11        2.80183
             Ti 22 -- Ti 40                  0.11        2.80183
             Ti 25 -- Ti 43                  0.11        2.80183
             Ti 13 -- Ti 31                  0.11        2.80183
             Ti 4  -- Ti 31                  0.11        2.80183
             Ti 16 -- Ti 34                  0.11        2.80183
             Ti 7  -- Ti 34                  0.11        2.80183
             Ti 22 -- Ti 49                  0.11        2.80183
             Ti 13 -- Ti 40                  0.11        2.80183
             Ti 4  -- Ti 49                  0.11        2.80183
             Ti 25 -- Ti 52                  0.11        2.80183
             Ti 16 -- Ti 43                  0.11        2.80183
             Ti 7  -- Ti 52                  0.11        2.80183
             Ti 26 -- Ti 40                  0.11        2.80183
             Ti 25 -- Ti 42                  0.11        2.80183
             Ti 17 -- Ti 31                  0.11        2.80183
             Ti 16 -- Ti 33                  0.11        2.80183
             Ti 8  -- Ti 31                  0.11        2.80183
             Ti 7  -- Ti 33                  0.11        2.80183
             Ti 26 -- Ti 49                  0.11        2.80183
             Ti 25 -- Ti 51                  0.11        2.80183
             Ti 17 -- Ti 40                  0.11        2.80183
             Ti 16 -- Ti 42                  0.11        2.80183
             Ti 8  -- Ti 49                  0.11        2.80183
             Ti 7  -- Ti 51                  0.11        2.80183
             Ti 1  -- Ti 52                  0.11        2.80595
             Ti 1  -- Ti 46                  0.11        2.80867
             Ti 1  -- Ti 54                  0.11        2.81139
             Ti 1  -- Ti 2                   0.23        2.85346
             Ti 1  -- Ti 7                   0.23        2.85613
             Ti 1  -- Ti 5                   0.23        2.85613
             Ti 46 -- Ti 52                  0.23        2.85879
             Ti 37 -- Ti 43                  0.23        2.85879
             Ti 28 -- Ti 34                  0.23        2.85879
             Ti 21 -- Ti 26                  0.23        2.85879
             Ti 20 -- Ti 25                  0.23        2.85879
             Ti 12 -- Ti 17                  0.23        2.85879
             Ti 11 -- Ti 16                  0.23        2.85879
             Ti 3  -- Ti 8                   0.23        2.85879
             Ti 2  -- Ti 7                   0.23        2.85879
             Ti 48 -- Ti 53                  0.23        2.85879
             Ti 48 -- Ti 51                  0.23        2.85879
             Ti 47 -- Ti 51                  0.23        2.85879
             Ti 47 -- Ti 50                  0.23        2.85879
             Ti 39 -- Ti 44                  0.23        2.85879
             Ti 39 -- Ti 42                  0.23        2.85879
             Ti 38 -- Ti 42                  0.23        2.85879
             Ti 38 -- Ti 41                  0.23        2.85879
             Ti 30 -- Ti 35                  0.23        2.85879
             Ti 30 -- Ti 33                  0.23        2.85879
             Ti 29 -- Ti 33                  0.23        2.85879
             Ti 29 -- Ti 32                  0.23        2.85879
             Ti 48 -- Ti 54                  0.23        2.85879
             Ti 48 -- Ti 49                  0.23        2.85879
             Ti 47 -- Ti 53                  0.23        2.85879
             Ti 46 -- Ti 50                  0.23        2.85879
             Ti 39 -- Ti 45                  0.23        2.85879
             Ti 39 -- Ti 40                  0.23        2.85879
             Ti 38 -- Ti 44                  0.23        2.85879
             Ti 37 -- Ti 41                  0.23        2.85879
             Ti 30 -- Ti 36                  0.23        2.85879
             Ti 30 -- Ti 31                  0.23        2.85879
             Ti 29 -- Ti 35                  0.23        2.85879
             Ti 28 -- Ti 32                  0.23        2.85879
             Ti 21 -- Ti 27                  0.23        2.85879
             Ti 21 -- Ti 24                  0.23        2.85879
             Ti 20 -- Ti 26                  0.23        2.85879
             Ti 19 -- Ti 25                  0.23        2.85879
             Ti 12 -- Ti 18                  0.23        2.85879
             Ti 12 -- Ti 15                  0.23        2.85879
             Ti 11 -- Ti 17                  0.23        2.85879
             Ti 10 -- Ti 16                  0.23        2.85879
             Ti 3  -- Ti 9                   0.23        2.85879
             Ti 3  -- Ti 6                   0.23        2.85879
             Ti 2  -- Ti 8                   0.23        2.85879
             Ti 20 -- Ti 23                  0.23        2.85879
             Ti 19 -- Ti 23                  0.23        2.85879
             Ti 19 -- Ti 22                  0.23        2.85879
             Ti 11 -- Ti 14                  0.23        2.85879
             Ti 10 -- Ti 14                  0.23        2.85879
             Ti 10 -- Ti 13                  0.23        2.85879
             Ti 2  -- Ti 5                   0.23        2.85879
             Ti 20 -- Ti 24                  0.23        2.85879
             Ti 11 -- Ti 15                  0.23        2.85879
             Ti 2  -- Ti 6                   0.23        2.85879
             Ti 52 -- Ti 54                  0.23        2.85879
             Ti 50 -- Ti 51                  0.23        2.85879
             Ti 43 -- Ti 45                  0.23        2.85879
             Ti 41 -- Ti 42                  0.23        2.85879
             Ti 34 -- Ti 36                  0.23        2.85879
             Ti 32 -- Ti 33                  0.23        2.85879
             Ti 22 -- Ti 23                  0.23        2.85879
             Ti 13 -- Ti 14                  0.23        2.85879
             Ti 4  -- Ti 5                   0.23        2.85879
             Ti 47 -- Ti 48                  0.23        2.85879
             Ti 46 -- Ti 47                  0.23        2.85879
             Ti 38 -- Ti 39                  0.23        2.85879
             Ti 37 -- Ti 38                  0.23        2.85879
             Ti 29 -- Ti 30                  0.23        2.85879
             Ti 28 -- Ti 29                  0.23        2.85879
             Ti 26 -- Ti 27                  0.23        2.85879
             Ti 25 -- Ti 26                  0.23        2.85879
             Ti 20 -- Ti 21                  0.23        2.85879
             Ti 19 -- Ti 20                  0.23        2.85879
             Ti 17 -- Ti 18                  0.23        2.85879
             Ti 16 -- Ti 17                  0.23        2.85879
             Ti 11 -- Ti 12                  0.23        2.85879
             Ti 10 -- Ti 11                  0.23        2.85879
             Ti 8  -- Ti 9                   0.23        2.85879
             Ti 7  -- Ti 8                   0.23        2.85879
             Ti 2  -- Ti 3                   0.23        2.85879
             Ti 53 -- Ti 54                  0.23        2.85879
             Ti 49 -- Ti 51                  0.23        2.85879
             Ti 44 -- Ti 45                  0.23        2.85879
             Ti 40 -- Ti 42                  0.23        2.85879
             Ti 35 -- Ti 36                  0.23        2.85879
             Ti 31 -- Ti 33                  0.23        2.85879
             Ti 23 -- Ti 24                  0.23        2.85879
             Ti 14 -- Ti 15                  0.23        2.85879
             Ti 5  -- Ti 6                   0.23        2.85879
             Ti 47 -- Ti 52                  0.23        2.85879
             Ti 46 -- Ti 54                  0.23        2.85879
             Ti 46 -- Ti 49                  0.23        2.85879
             Ti 38 -- Ti 43                  0.23        2.85879
             Ti 37 -- Ti 45                  0.23        2.85879
             Ti 37 -- Ti 40                  0.23        2.85879
             Ti 29 -- Ti 34                  0.23        2.85879
             Ti 28 -- Ti 36                  0.23        2.85879
             Ti 28 -- Ti 31                  0.23        2.85879
             Ti 19 -- Ti 27                  0.23        2.85879
             Ti 10 -- Ti 18                  0.23        2.85879
             Ti 21 -- Ti 22                  0.23        2.85879
             Ti 12 -- Ti 13                  0.23        2.85879
             Ti 3  -- Ti 4                   0.23        2.85879
             Ti 23 -- Ti 26                  0.23        2.85879
             Ti 22 -- Ti 25                  0.23        2.85879
             Ti 14 -- Ti 17                  0.23        2.85879
             Ti 13 -- Ti 16                  0.23        2.85879
             Ti 5  -- Ti 8                   0.23        2.85879
             Ti 4  -- Ti 7                   0.23        2.85879
             Ti 24 -- Ti 27                  0.23        2.85879
             Ti 15 -- Ti 18                  0.23        2.85879
             Ti 6  -- Ti 9                   0.23        2.85879
             Ti 51 -- Ti 54                  0.23        2.85879
             Ti 42 -- Ti 45                  0.23        2.85879
             Ti 33 -- Ti 36                  0.23        2.85879
             Ti 23 -- Ti 27                  0.23        2.85879
             Ti 22 -- Ti 26                  0.23        2.85879
             Ti 14 -- Ti 18                  0.23        2.85879
             Ti 13 -- Ti 17                  0.23        2.85879
             Ti 5  -- Ti 9                   0.23        2.85879
             Ti 4  -- Ti 8                   0.23        2.85879
             Ti 50 -- Ti 54                  0.23        2.85879
             Ti 50 -- Ti 53                  0.23        2.85879
             Ti 49 -- Ti 52                  0.23        2.85879
             Ti 41 -- Ti 45                  0.23        2.85879
             Ti 41 -- Ti 44                  0.23        2.85879
             Ti 40 -- Ti 43                  0.23        2.85879
             Ti 32 -- Ti 36                  0.23        2.85879
             Ti 32 -- Ti 35                  0.23        2.85879
             Ti 31 -- Ti 34                  0.23        2.85879
             Ti 51 -- Ti 52                  0.23        2.85879
             Ti 42 -- Ti 43                  0.23        2.85879
             Ti 33 -- Ti 34                  0.23        2.85879
             Ti 22 -- Ti 24                  0.23        2.85879
             Ti 13 -- Ti 15                  0.23        2.85879
             Ti 4  -- Ti 6                   0.23        2.85879
             Ti 52 -- Ti 53                  0.23        2.85879
             Ti 43 -- Ti 44                  0.23        2.85879
             Ti 34 -- Ti 35                  0.23        2.85879
             Ti 49 -- Ti 50                  0.23        2.85879
             Ti 46 -- Ti 48                  0.23        2.85879
             Ti 40 -- Ti 41                  0.23        2.85879
             Ti 37 -- Ti 39                  0.23        2.85879
             Ti 31 -- Ti 32                  0.23        2.85879
             Ti 28 -- Ti 30                  0.23        2.85879
             Ti 25 -- Ti 27                  0.23        2.85879
             Ti 19 -- Ti 21                  0.23        2.85879
             Ti 16 -- Ti 18                  0.23        2.85879
             Ti 10 -- Ti 12                  0.23        2.85879
             Ti 7  -- Ti 9                   0.23        2.85879
             Ti 24 -- Ti 25                  0.23        2.85879
             Ti 15 -- Ti 16                  0.23        2.85879
             Ti 6  -- Ti 7                   0.23        2.85879
             Ti 49 -- Ti 53                  0.23        2.85879
             Ti 40 -- Ti 44                  0.23        2.85879
             Ti 31 -- Ti 35                  0.23        2.85879
             Ti 1  -- Ti 4                   0.23        2.86147
             Ti 1  -- Ti 9                   0.23        2.86147
             Ti 1  -- Ti 3                   0.23        2.86414
======================================================================

 
 A BibTeX formatted list of references used in this run has been written to 
 castep.bib
 
Initialisation time =     11.52 s
Calculation time    =   2221.78 s
Finalisation time   =      0.09 s
Total time          =   2233.40 s
Peak Memory Use     = 1614132 kB
  
Overall parallel efficiency rating: Very good (85%)                             
  
Data was distributed by:-
G-vector (3-way); efficiency rating: Very good (85%)                            
k-point (16-way); efficiency rating: Excellent (99%)                            
