2
Lattice="3.32 0.0 0.0 0.0 3.32 0.0 0.0 0.0 3.32" Properties=species:S:1:pos:R:3 energy=-3186.91077716 pbc="T T T" n_minim_iter=1
Ti       0.00000000       0.00000000       0.00000000 
Ti       1.66000000       1.66000000       1.66000000 
2
Lattice="3.147403469067988 -5.253186719835337e-15 1.6635664176085044e-16 -5.253186719835338e-15 3.1474034690679753 -4.774569538488222e-16 1.6635664176085044e-16 -4.774569538488222e-16 3.147403469067919" Properties=species:S:1:pos:R:3 stress="-0.01049520923155261 -7.652053218543876e-14 -2.6720805769735985e-16 -7.652053218543876e-14 -0.010495209231565373 -4.7810933488157903e-14 -2.6720805769735985e-16 -4.7810933488157903e-14 -0.01049520923145963" pbc="T T T" n_minim_iter=2
Ti       0.00000000       0.00000000      -0.00000000 
Ti       1.57370173       1.57370173       1.57370173 
2
Lattice="3.163680699575309 1.137032240548438e-13 5.827050825016135e-16 1.137032240548438e-13 3.1636806995753166 7.386242073958101e-14 5.827050825016134e-16 7.3862420739581e-14 3.1636806995750955" Properties=species:S:1:pos:R:3 stress="-0.0014940617810595572 4.1519801367061574e-14 -4.6401120644720787e-14 4.1519801367061574e-14 -0.0014940617810398104 1.5909096252185708e-14 -4.6401120644720787e-14 1.5909096252185708e-14 -0.001494061780944667" pbc="T T T" n_minim_iter=3
Ti       0.00000000       0.00000000      -0.00000000 
Ti       1.58184035       1.58184035       1.58184035 
