2
Lattice="2.9369010016530033 1.0555272302374696e-13 5.409354808457804e-16 1.0555272302374696e-13 2.9369010016530104 6.856779746568965e-14 5.409354808457803e-16 6.856779746568964e-14 2.9369010016528057" Properties=species:S:1:pos:R:3 energy=-3186.02042626 pbc="T T T" n_minim_iter=0
Ti       0.00000000       0.00000000      -0.00000000 
Ti       1.46845050       1.46845050       1.46845050 
