2
Lattice="3.1898280068041918 1.1464296273728274e-13 5.875210453824586e-16 1.1464296273728274e-13 3.1898280068041993 7.447288165240514e-14 5.875210453824585e-16 7.447288165240512e-14 3.1898280068039764" Properties=species:S:1:pos:R:3 energy=-3187.12816886 pbc="T T T" n_minim_iter=0
Ti       0.00000000       0.00000000      -0.00000000 
Ti       1.59491400       1.59491400       1.59491400 
