2
Lattice="3.4079717236746916 1.224830851361116e-13 6.277000218996833e-16 1.224830851361116e-13 3.4079717236747 7.956588076554187e-14 6.277000218996832e-16 7.956588076554185e-14 3.4079717236744616" Properties=species:S:1:pos:R:3 energy=-3186.61160934 pbc="T T T" n_minim_iter=0
Ti       0.00000000       0.00000000      -0.00000000 
Ti       1.70398586       1.70398586       1.70398586 
