2
Lattice="3.1370938905000036 1.1274768960106702e-13 5.778081696185402e-16 1.1274768960106702e-13 3.137093890500011 7.324169878167081e-14 5.778081696185401e-16 7.32416987816708e-14 3.137093890499792" Properties=species:S:1:pos:R:3 energy=-3187.12565564 pbc="T T T" n_minim_iter=0
Ti       0.00000000       0.00000000      -0.00000000 
Ti       1.56854695       1.56854695       1.56854695 
