2
Lattice="3.385098741050953 1.2166102623856904e-13 6.234871431383682e-16 1.2166102623856904e-13 3.3850987410509616 7.903186547558214e-14 6.234871431383681e-16 7.903186547558213e-14 3.3850987410507245" Properties=species:S:1:pos:R:3 energy=-3186.6996263 pbc="T T T" n_minim_iter=0
Ti       0.00000000       0.00000000      -0.00000000 
Ti       1.69254937       1.69254937       1.69254937 
