2
Lattice="3.082524634116558 1.1078646121733473e-13 5.677572870983049e-16 1.1078646121733473e-13 3.0825246341165657 7.196767091438915e-14 5.677572870983048e-16 7.196767091438913e-14 3.08252463411635" Properties=species:S:1:pos:R:3 energy=-3187.06042812 pbc="T T T" n_minim_iter=0
Ti       0.00000000       0.00000000      -0.00000000 
Ti       1.54126232       1.54126232       1.54126232 
