2
Lattice="3.2903605222440655 1.1825611849266335e-13 6.060377078608655e-16 1.1825611849266335e-13 3.2903605222440735 7.682001325592795e-14 6.060377078608654e-16 7.682001325592793e-14 3.2903605222438435" Properties=species:S:1:pos:R:3 energy=-3186.98611762 pbc="T T T" n_minim_iter=0
Ti       0.00000000       0.00000000      -0.00000000 
Ti       1.64518026       1.64518026       1.64518026 
