2
Lattice="3.3619124055613403 1.2082770538557015e-13 6.192165492265998e-16 1.2082770538557015e-13 3.3619124055613483 7.849053433948716e-14 6.192165492265997e-16 7.849053433948714e-14 3.361912405561113" Properties=species:S:1:pos:R:3 energy=-3186.78192389 pbc="T T T" n_minim_iter=0
Ti       0.00000000       0.00000000      -0.00000000 
Ti       1.68095620       1.68095620       1.68095620 
