2
Lattice="3.338401759407156 1.199827287519604e-13 6.148862218933834e-16 1.199827287519604e-13 3.338401759407164 7.79416315256435e-14 6.148862218933833e-16 7.794163152564349e-14 3.3384017594069304" Properties=species:S:1:pos:R:3 energy=-3186.85738364 pbc="T T T" n_minim_iter=0
Ti       0.00000000       0.00000000      -0.00000000 
Ti       1.66920088       1.66920088       1.66920088 
