2
Lattice="3.054500131721673 1.0977925582038715e-13 5.625955715110554e-16 1.0977925582038715e-13 3.0545001317216802 7.131338314534018e-14 5.625955715110553e-16 7.131338314534017e-14 3.0545001317214666" Properties=species:S:1:pos:R:3 energy=-3186.98281106 pbc="T T T" n_minim_iter=0
Ti       0.00000000       0.00000000      -0.00000000 
Ti       1.52725007       1.52725007       1.52725007 
