2
Lattice="2.9059839582261 1.0444155920865195e-13 5.352410002544874e-16 1.0444155920865195e-13 2.905983958226107 6.78459775709296e-14 5.352410002544873e-16 6.784597757092959e-14 2.9059839582259044" Properties=species:S:1:pos:R:3 energy=-3185.69506858 pbc="T T T" n_minim_iter=0
Ti       0.00000000       0.00000000      -0.00000000 
Ti       1.45299198       1.45299198       1.45299198 
