2
Lattice="3.163680699575309 1.137032240548438e-13 5.827050825016135e-16 1.137032240548438e-13 3.1636806995753166 7.386242073958101e-14 5.827050825016134e-16 7.3862420739581e-14 3.1636806995750955" Properties=species:S:1:pos:R:3 energy=-3187.13269579 pbc="T T T" n_minim_iter=0
Ti       0.00000000       0.00000000      -0.00000000 
Ti       1.58184035       1.58184035       1.58184035 
