2
Lattice="3.2658046778246805 1.1737357725509534e-13 6.015148698417774e-16 1.1737357725509534e-13 3.2658046778246885 7.624670820894145e-14 6.015148698417773e-16 7.624670820894144e-14 3.2658046778244603" Properties=species:S:1:pos:R:3 energy=-3187.03815882 pbc="T T T" n_minim_iter=0
Ti       0.00000000       0.00000000      -0.00000000 
Ti       1.63290234       1.63290234       1.63290234 
