2
Lattice="3.025951731276387 1.0875322143813312e-13 5.573373613386468e-16 1.0875322143813312e-13 3.025951731276394 7.064686393389928e-14 5.573373613386467e-16 7.064686393389927e-14 3.0259517312761828" Properties=species:S:1:pos:R:3 energy=-3186.85386195 pbc="T T T" n_minim_iter=0
Ti       0.00000000       0.00000000      -0.00000000 
Ti       1.51297587       1.51297587       1.51297587 
