2
Lattice="2.9968542393057884 1.077074526127864e-13 5.519780163005734e-16 1.077074526127864e-13 2.9968542393057955 6.99675250882669e-14 5.519780163005733e-16 6.996752508826688e-14 2.9968542393055864" Properties=species:S:1:pos:R:3 energy=-3186.65347922 pbc="T T T" n_minim_iter=0
Ti       0.00000000       0.00000000      -0.00000000 
Ti       1.49842712       1.49842712       1.49842712 
