2
Lattice="3.3145552185158205 1.19125680004195e-13 6.104940275169632e-16 1.19125680004195e-13 3.3145552185158285 7.738488658082784e-14 6.104940275169631e-16 7.738488658082783e-14 3.3145552185155966" Properties=species:S:1:pos:R:3 energy=-3186.92559922 pbc="T T T" n_minim_iter=0
Ti       0.00000000       0.00000000      -0.00000000 
Ti       1.65727761       1.65727761       1.65727761 
