2
Lattice="2.9671804661213788 1.0664097214230388e-13 5.465125284421189e-16 1.0664097214230388e-13 2.967180466121386 6.927473181106545e-14 5.465125284421188e-16 6.927473181106544e-14 2.967180466121179" Properties=species:S:1:pos:R:3 energy=-3186.36928791 pbc="T T T" n_minim_iter=0
Ti       0.00000000       0.00000000      -0.00000000 
Ti       1.48359023       1.48359023       1.48359023 
