2
Lattice="2.8743946741719415 1.0330623495073167e-13 5.294227024808163e-16 1.0330623495073167e-13 2.8743946741719486 6.710846288116222e-14 5.294227024808162e-16 6.71084628811622e-14 2.8743946741717483" Properties=species:S:1:pos:R:3 energy=-3185.59500795 pbc="T T T" n_minim_iter=0
Ti       0.00000000       0.00000000      -0.00000000 
Ti       1.43719734       1.43719734       1.43719734 
