2
Lattice="3.2155535371738106 1.1556754268744622e-13 5.922593229521384e-16 1.1556754268744622e-13 3.215553537173818 7.5073495345236e-14 5.922593229521383e-16 7.507349534523599e-14 3.2155535371735935" Properties=species:S:1:pos:R:3 energy=-3187.11068489 pbc="T T T" n_minim_iter=0
Ti       0.00000000       0.00000000      -0.00000000 
Ti       1.60777677       1.60777677       1.60777677 
