2
Lattice="3.2408738988743857 1.16477560806524e-13 5.9692297420357e-16 1.16477560806524e-13 3.2408738988743937 7.566464956931977e-14 5.969229742035699e-16 7.566464956931976e-14 3.240873898874167" Properties=species:S:1:pos:R:3 energy=-3187.08026382 pbc="T T T" n_minim_iter=0
Ti       0.00000000       0.00000000      -0.00000000 
Ti       1.62043695       1.62043695       1.62043695 
