54
Lattice="9.497192444836418 0.0 0.0 0.0 9.497192444836418 0.0 0.0 0.0 9.497192444836418" Properties=species:S:1:pos:R:3:force:R:3 virial="2.436344566087376 -3.656993472964372e-10 -5.20820041635022e-10 -3.656993472964372e-10 2.4369054733163886 -2.1429058007227397e-10 -5.20820041635022e-10 -2.1429058007227397e-10 2.4369054732138564" energy=-86053.8636366 stress="-0.0028441532557976186 4.269121058383677e-13 6.079977511061852e-13 4.269121058383677e-13 -0.002844808050748958 2.5015971036399797e-13 6.079977511061852e-13 2.5015971036399797e-13 -0.0028448080506292633" pbc="T T T"
Ti       0.01000000       0.00000000       0.00000000      -0.04011705       0.00000001       0.00000001 
Ti       3.16573081       0.00000000       0.00000000      -0.00217895       0.00000001       0.00000001 
Ti       6.33146163       0.00000000       0.00000000      -0.00232387       0.00000001       0.00000001 
Ti       0.00000000       3.16573081       0.00000000      -0.00061890       0.00002674       0.00000001 
Ti       3.16573081       3.16573081       0.00000000       0.00005667       0.00160747       0.00000001 
Ti       6.33146163       3.16573081       0.00000000       0.00008712      -0.00161430       0.00000001 
Ti       0.00000000       6.33146163       0.00000000      -0.00061890      -0.00002671       0.00000001 
Ti       3.16573081       6.33146163       0.00000000       0.00005667      -0.00160744       0.00000001 
Ti       6.33146163       6.33146163       0.00000000       0.00008712       0.00161433       0.00000001 
Ti       0.00000000       0.00000000       3.16573081      -0.00061890       0.00000001       0.00002674 
Ti       3.16573081       0.00000000       3.16573081       0.00005667       0.00000001       0.00160747 
Ti       6.33146163       0.00000000       3.16573081       0.00008712       0.00000001      -0.00161430 
Ti       0.00000000       3.16573081       3.16573081      -0.00148336       0.00000381       0.00000381 
Ti       3.16573081       3.16573081       3.16573081      -0.00016871      -0.00132916      -0.00132916 
Ti       6.33146163       3.16573081       3.16573081      -0.00015657       0.00131966       0.00131966 
Ti       0.00000000       6.33146163       3.16573081      -0.00148336      -0.00000378       0.00000381 
Ti       3.16573081       6.33146163       3.16573081      -0.00016871       0.00132919      -0.00132916 
Ti       6.33146163       6.33146163       3.16573081      -0.00015657      -0.00131963       0.00131966 
Ti       0.00000000       0.00000000       6.33146163      -0.00061890       0.00000001      -0.00002671 
Ti       3.16573081       0.00000000       6.33146163       0.00005667       0.00000001      -0.00160744 
Ti       6.33146163       0.00000000       6.33146163       0.00008712       0.00000001       0.00161433 
Ti       0.00000000       3.16573081       6.33146163      -0.00148336       0.00000381      -0.00000378 
Ti       3.16573081       3.16573081       6.33146163      -0.00016871      -0.00132916       0.00132919 
Ti       6.33146163       3.16573081       6.33146163      -0.00015657       0.00131966      -0.00131963 
Ti       0.00000000       6.33146163       6.33146163      -0.00148336      -0.00000378      -0.00000378 
Ti       3.16573081       6.33146163       6.33146163      -0.00016871       0.00132919       0.00132919 
Ti       6.33146163       6.33146163       6.33146163      -0.00015657      -0.00131963      -0.00131964 
Ti       1.58286541       1.58286541       1.58286541       0.00515125       0.00676879       0.00676879 
Ti       4.74859622       1.58286541       1.58286541       0.00342826       0.00000638       0.00000638 
Ti       7.91432704       1.58286541       1.58286541       0.00510218      -0.00663249      -0.00663249 
Ti       1.58286541       4.74859622       1.58286541      -0.00025732      -0.00000001      -0.00124553 
Ti       4.74859622       4.74859622       1.58286541       0.00038666      -0.00000001       0.00000130 
Ti       7.91432704       4.74859622       1.58286541      -0.00025360      -0.00000001       0.00123346 
Ti       1.58286541       7.91432704       1.58286541       0.00515125      -0.00676881       0.00676879 
Ti       4.74859622       7.91432704       1.58286541       0.00342826      -0.00000641       0.00000638 
Ti       7.91432704       7.91432704       1.58286541       0.00510218       0.00663246      -0.00663249 
Ti       1.58286541       1.58286541       4.74859622      -0.00025732      -0.00124553      -0.00000001 
Ti       4.74859622       1.58286541       4.74859622       0.00038666       0.00000130      -0.00000001 
Ti       7.91432704       1.58286541       4.74859622      -0.00025360       0.00123346      -0.00000001 
Ti       1.58286541       4.74859622       4.74859622      -0.00113363      -0.00000001      -0.00000001 
Ti       4.74859622       4.74859622       4.74859622       0.00178810      -0.00000001      -0.00000001 
Ti       7.91432704       4.74859622       4.74859622      -0.00112938      -0.00000001      -0.00000001 
Ti       1.58286541       7.91432704       4.74859622      -0.00025732       0.00124551      -0.00000001 
Ti       4.74859622       7.91432704       4.74859622       0.00038666      -0.00000133      -0.00000001 
Ti       7.91432704       7.91432704       4.74859622      -0.00025360      -0.00123349      -0.00000001 
Ti       1.58286541       1.58286541       7.91432704       0.00515125       0.00676879      -0.00676881 
Ti       4.74859622       1.58286541       7.91432704       0.00342826       0.00000638      -0.00000641 
Ti       7.91432704       1.58286541       7.91432704       0.00510218      -0.00663249       0.00663246 
Ti       1.58286541       4.74859622       7.91432704      -0.00025732      -0.00000001       0.00124551 
Ti       4.74859622       4.74859622       7.91432704       0.00038666      -0.00000001      -0.00000133 
Ti       7.91432704       4.74859622       7.91432704      -0.00025360      -0.00000001      -0.00123349 
Ti       1.58286541       7.91432704       7.91432704       0.00515125      -0.00676881      -0.00676881 
Ti       4.74859622       7.91432704       7.91432704       0.00342826      -0.00000641      -0.00000641 
Ti       7.91432704       7.91432704       7.91432704       0.00510218       0.00663246       0.00663246 
