 +-------------------------------------------------+
 |                                                 |
 |      CCC   AA    SSS  TTTTT  EEEEE  PPPP        |
 |     C     A  A  S       T    E      P   P       |
 |     C     AAAA   SS     T    EEE    PPPP        |
 |     C     A  A     S    T    E      P           |
 |      CCC  A  A  SSS     T    EEEEE  P           |
 |                                                 |
 +-------------------------------------------------+
 |                                                 |
 | Welcome to Academic Release CASTEP version 17.21|          
 | Ab Initio Total Energy Program                  |
 |                                                 |
 | Authors:                                        |
 | M. Segall, M. Probert, C. Pickard, P. Hasnip,   |
 | S. Clark, K. Refson, J. R. Yates, M. Payne      |
 |                                                 |
 | Contributors:                                   |
 | P. Lindan, P. Haynes, J. White, V. Milman,      |
 | N. Govind, M. Gibson, P. Tulip, V. Cocula,      |
 | B. Montanari, D. Quigley, M. Glover,            |
 | L. Bernasconi, A. Perlov, M. Plummer,           |
 | E. McNellis, J. Meyer, J. Gale, D. Jochym       |
 | J. Aarons, B. Walker, R. Gillen, D. Jones       |
 | T. Green, I. J. Bush, C. J. Armstrong,          |
 | E. J. Higgins, E. L. Brown, M. S. McFly,        |
 | J. Wilkins, B-C. Shih, P. J. P. Byrne           |
 |                                                 |
 | Copyright (c) 2000 - 2017                       |
 |                                                 |
 |     Distributed under the terms of an           |
 |     Agreement between the United Kingdom        |
 |     Car-Parrinello (UKCP) Consortium,           |
 |     Daresbury Laboratory and Accelrys, Inc.     |
 |                                                 |
 | Please cite                                     |
 |                                                 |
 |     "First principles methods using CASTEP"     |
 |                                                 |
 |         Zeitschrift fuer Kristallographie       |
 |           220(5-6) pp. 567-570 (2005)           |
 |                                                 |
 | S. J. Clark, M. D. Segall, C. J. Pickard,       |
 | P. J. Hasnip, M. J. Probert, K. Refson,         |
 | M. C. Payne                                     |
 |                                                 |
 |       in all publications arising from          |
 |              your use of CASTEP                 |
 |                                                 |
 +-------------------------------------------------+


 Compiled for linux_x86_64_gfortran6.0-XT on Fri, 21 Jul 2017 10:20:05 +0100
 from code version 056e886bd5a1+ Castep172_branch Mon, 15 May 2017 14:45:35 +0100
 Compiler: GNU Fortran 6.3.0; Optimisation: fast
 MATHLIBS: Intel MKL(2017.0.0) (LAPACK version 3.6.0)
 FFT Lib : fftw3 version commercial-fftw-3.3.4-sse2-avx
 Fundamental constants values: CODATA 2010

 Run started: Fri, 20 Sep 2019 17:20:52 +0100

 Atomic calculation performed for Ti: 1s2 2s2 2p6 3s2 3p6 3d2 4s2

 Converged in 78 iterations to an ae energy of -23176.516 eV

   ============================================================                
   | Pseudopotential Report - Date of generation 20-09-2019   |                
   ------------------------------------------------------------                
   | Element: Ti Ionic charge: 12.00 Level of theory: LDA     |                
   | Atomic Solver: Koelling-Harmon                           |                
   |                                                          |                
   |               Reference Electronic Structure             |                
   |         Orbital         Occupation         Energy        |                
   |            3s              2.000           -2.288        |                
   |            3p              6.000           -1.425        |                
   |            4s              2.000           -0.169        |                
   |            3d              2.000           -0.164        |                
   |                                                          |                
   |                 Pseudopotential Definition               |                
   |        Beta     l      e      Rc     scheme   norm       |                
   |          1      0   -2.288   1.793     qc      0         |                
   |          2      0   -0.169   1.793     qc      0         |                
   |          3      0    0.250   1.793     qc      0         |                
   |          4      1   -1.425   1.793     qc      0         |                
   |          5      1    0.250   1.793     qc      0         |                
   |          6      2   -0.164   1.793     qc      0         |                
   |          7      2    0.250   1.793     qc      0         |                
   |         loc     3    0.000   1.793     pn      0         |                
   |                                                          |                
   | Augmentation charge Rinner = 1.263                       |                
   | Partial core correction Rc = 1.263                       |                
   ------------------------------------------------------------                
   | "3|1.8|9|10|11|30U:40:31:32(qc=5.5)"                     |                
   ------------------------------------------------------------                
   |      Author: Chris J. Pickard, Cambridge University      |                
   ============================================================                

 Pseudo atomic calculation performed for Ti 3s2 3p6 3d2 4s2

 Converged in 31 iterations to a total energy of -1585.9998 eV

 Calculation parallelised over 42 processes.
 Data is distributed by G-vector(3-way) and k-point(14-way)

 ************************************ Title ************************************
 

 ***************************** General Parameters ******************************
  
 output verbosity                               : normal  (1)
 write checkpoint data to                       : castep.check
 type of calculation                            : single point energy
 stress calculation                             : on
 density difference calculation                 : off
 electron localisation func (ELF) calculation   : off
 Hirshfeld analysis                             : off
 unlimited duration calculation
 timing information                             : on
 memory usage estimate                          : on
 write final potential to formatted file        : off
 write final density to formatted file          : off
 write BibTeX reference list                    : on
 write OTFG pseudopotential files               : on
 write electrostatic potential file             : on
 write bands file                               : on
 checkpoint writing                             : off
  
 output         length unit                     : A
 output           mass unit                     : amu
 output           time unit                     : ps
 output         charge unit                     : e
 output           spin unit                     : hbar/2
 output         energy unit                     : eV
 output          force unit                     : eV/A
 output       velocity unit                     : A/ps
 output       pressure unit                     : GPa
 output     inv_length unit                     : 1/A
 output      frequency unit                     : cm-1
 output force constant unit                     : eV/A**2
 output         volume unit                     : A**3
 output   IR intensity unit                     : (D/A)**2/amu
 output         dipole unit                     : D
 output         efield unit                     : eV/A/e
 output        entropy unit                     : J/mol/K
  
 wavefunctions paging                           : none
 random number generator seed                   : randomised (172052386)
 data distribution                              : optimal for this architecture
 optimization strategy                          : balance speed and memory

 *********************** Exchange-Correlation Parameters ***********************
  
 using functional                               : Local Density Approximation
 relativistic treatment                         : Koelling-Harmon
 DFT+D: Semi-empirical dispersion correction    : off

 ************************* Pseudopotential Parameters **************************
  
 pseudopotential representation                 : reciprocal space
 <beta|phi> representation                      : reciprocal space
 spin-orbit coupling                            : off

 **************************** Basis Set Parameters *****************************
  
 plane wave basis set cut-off                   :   600.0000   eV
 size of standard grid                          :     1.7500
 size of   fine   gmax                          :    21.9610   1/A
 finite basis set correction                    : automatic
 number of sample energies                      :          3
           sample  spacing                      :     5.0000   eV

 **************************** Electronic Parameters ****************************
  
 number of  electrons                           :  648.0    
 net charge of system                           :  0.000    
 treating system as non-spin-polarized
 number of bands                                :        389

 ********************* Electronic Minimization Parameters **********************
  
 Method: Treating system as metallic with density mixing treatment of electrons,
         and number of  SD  steps               :          1
         and number of  CG  steps               :          4
  
 total energy / atom convergence tol.           : 0.1000E-04   eV
 eigen-energy convergence tolerance             : 0.1000E-05   eV
 max force / atom convergence tol.              : ignored
 convergence tolerance window                   :          3   cycles
 max. number of SCF cycles                      :        250
 number of fixed-spin iterations                :         10
 smearing scheme                                : Gaussian
 smearing width                                 : 0.1000       eV
 Fermi energy convergence tolerance             : 0.2721E-13   eV
 periodic dipole correction                     : NONE

 ************************** Density Mixing Parameters **************************
  
 density-mixing scheme                          : Pulay
 max. length of mixing history                  :         20
 charge density mixing amplitude                : 0.8000    
 cut-off energy for mixing                      :  600.0       eV

 *********************** Population Analysis Parameters ************************
  
 Population analysis with cutoff                :  3.000       A

 *******************************************************************************
  

                           -------------------------------
                                      Unit Cell
                           -------------------------------
        Real Lattice(A)                      Reciprocal Lattice(1/A)
   9.4971920   0.0000000   0.0000000        0.6615835   0.0000000   0.0000000
   0.0000000   9.4971920   0.0000000        0.0000000   0.6615835   0.0000000
   0.0000000   0.0000000   9.4971920        0.0000000   0.0000000   0.6615835

                       Lattice parameters(A)       Cell Angles
                    a =    9.497192          alpha =   90.000000
                    b =    9.497192          beta  =   90.000000
                    c =    9.497192          gamma =   90.000000

                       Current cell volume =  856.614959       A**3
                                   density =    3.017479   AMU/A**3
                                           =    5.010642     g/cm^3

                           -------------------------------
                                     Cell Contents
                           -------------------------------
                         Total number of ions in cell =   54
                      Total number of species in cell =    1
                        Max number of any one species =   54

            xxxxxxxxxxxxxxxxxxxxxxxxxxxxxxxxxxxxxxxxxxxxxxxxxxxxxxxxxxxx
            x  Element    Atom        Fractional coordinates of atoms  x
            x            Number           u          v          w      x
            x----------------------------------------------------------x
            x  Ti           1         0.001053   0.000000   0.000000   x 
            x  Ti           2         0.333333   0.000000   0.000000   x 
            x  Ti           3         0.666667   0.000000   0.000000   x 
            x  Ti           4         0.000000   0.333333   0.000000   x 
            x  Ti           5         0.333333   0.333333   0.000000   x 
            x  Ti           6         0.666667   0.333333   0.000000   x 
            x  Ti           7         0.000000   0.666667   0.000000   x 
            x  Ti           8         0.333333   0.666667   0.000000   x 
            x  Ti           9         0.666667   0.666667   0.000000   x 
            x  Ti          10         0.000000   0.000000   0.333333   x 
            x  Ti          11         0.333333   0.000000   0.333333   x 
            x  Ti          12         0.666667   0.000000   0.333333   x 
            x  Ti          13         0.000000   0.333333   0.333333   x 
            x  Ti          14         0.333333   0.333333   0.333333   x 
            x  Ti          15         0.666667   0.333333   0.333333   x 
            x  Ti          16         0.000000   0.666667   0.333333   x 
            x  Ti          17         0.333333   0.666667   0.333333   x 
            x  Ti          18         0.666667   0.666667   0.333333   x 
            x  Ti          19         0.000000   0.000000   0.666667   x 
            x  Ti          20         0.333333   0.000000   0.666667   x 
            x  Ti          21         0.666667   0.000000   0.666667   x 
            x  Ti          22         0.000000   0.333333   0.666667   x 
            x  Ti          23         0.333333   0.333333   0.666667   x 
            x  Ti          24         0.666667   0.333333   0.666667   x 
            x  Ti          25         0.000000   0.666667   0.666667   x 
            x  Ti          26         0.333333   0.666667   0.666667   x 
            x  Ti          27         0.666667   0.666667   0.666667   x 
            x  Ti          28         0.166667   0.166667   0.166667   x 
            x  Ti          29         0.500000   0.166667   0.166667   x 
            x  Ti          30         0.833333   0.166667   0.166667   x 
            x  Ti          31         0.166667   0.500000   0.166667   x 
            x  Ti          32         0.500000   0.500000   0.166667   x 
            x  Ti          33         0.833333   0.500000   0.166667   x 
            x  Ti          34         0.166667   0.833333   0.166667   x 
            x  Ti          35         0.500000   0.833333   0.166667   x 
            x  Ti          36         0.833333   0.833333   0.166667   x 
            x  Ti          37         0.166667   0.166667   0.500000   x 
            x  Ti          38         0.500000   0.166667   0.500000   x 
            x  Ti          39         0.833333   0.166667   0.500000   x 
            x  Ti          40         0.166667   0.500000   0.500000   x 
            x  Ti          41         0.500000   0.500000   0.500000   x 
            x  Ti          42         0.833333   0.500000   0.500000   x 
            x  Ti          43         0.166667   0.833333   0.500000   x 
            x  Ti          44         0.500000   0.833333   0.500000   x 
            x  Ti          45         0.833333   0.833333   0.500000   x 
            x  Ti          46         0.166667   0.166667   0.833333   x 
            x  Ti          47         0.500000   0.166667   0.833333   x 
            x  Ti          48         0.833333   0.166667   0.833333   x 
            x  Ti          49         0.166667   0.500000   0.833333   x 
            x  Ti          50         0.500000   0.500000   0.833333   x 
            x  Ti          51         0.833333   0.500000   0.833333   x 
            x  Ti          52         0.166667   0.833333   0.833333   x 
            x  Ti          53         0.500000   0.833333   0.833333   x 
            x  Ti          54         0.833333   0.833333   0.833333   x 
            xxxxxxxxxxxxxxxxxxxxxxxxxxxxxxxxxxxxxxxxxxxxxxxxxxxxxxxxxxxx


                         No user defined ionic velocities

                           -------------------------------
                                   Details of Species
                           -------------------------------

                               Mass of species in AMU
                                    Ti   47.8670000

                          Electric Quadrupole Moment (Barn)
                                    Ti    0.3020000 Isotope 47

                          Files used for pseudopotentials:
                                    Ti 3|1.8|9|10|11|30U:40:31:32(qc=5.5)

                           -------------------------------
                              k-Points For BZ Sampling
                           -------------------------------
                       MP grid size for SCF calculation is  3  3  3
                            with an offset of   0.000  0.000  0.000
                       Number of kpoints used =            14

                           -------------------------------
                               Symmetry and Constraints
                           -------------------------------

                      Maximum deviation from symmetry =  0.00000         ANG

                      Number of symmetry operations   =           1
                      Number of ionic constraints     =           3
                      Point group of crystal =     1: C1, 1, 1
                      Space group of crystal =    99: P4mm, P 4 -2

             Set iprint > 1 for details on symmetry rotations/translations

                         Centre of mass is constrained
             Set iprint > 1 for details of linear ionic constraints

                         Number of cell constraints= 0
                         Cell constraints are:  1 2 3 4 5 6

                         External pressure/stress (GPa)
                          0.00000   0.00000   0.00000
                                    0.00000   0.00000
                                              0.00000
  
+---------------- MEMORY AND SCRATCH DISK ESTIMATES PER PROCESS --------------+
|                                                     Memory          Disk    |
| Baseline code, static data and system overhead      172.0 MB         0.0 MB |
| BLAS internal memory storage                          0.0 MB         0.0 MB |
| Model and support data                              259.6 MB       183.1 MB |
| Electronic energy minimisation requirements         292.8 MB         0.0 MB |
| Force calculation requirements                       18.4 MB         0.0 MB |
| Stress calculation requirements                      20.4 MB         0.0 MB |
|                                               ----------------------------- |
| Approx. total storage required per process          724.4 MB       183.1 MB |
|                                                                             |
| Requirements will fluctuate during execution and may exceed these estimates |
+-----------------------------------------------------------------------------+
Calculating finite basis set correction with  3 cut-off energies.
Calculating total energy with cut-off of  590.000 eV.
------------------------------------------------------------------------ <-- SCF
SCF loop      Energy           Fermi           Energy gain       Timer   <-- SCF
                               energy          per atom          (sec)   <-- SCF
------------------------------------------------------------------------ <-- SCF
Initial  -7.82608334E+004  0.00000000E+000                        19.64  <-- SCF
      1  -8.39543164E+004  1.17799780E+001   1.05434869E+002     115.19  <-- SCF
      2  -8.59525755E+004  9.90822776E+000   3.70047993E+001     187.26  <-- SCF
      3  -8.60539192E+004  9.72152915E+000   1.87673413E+000     264.23  <-- SCF
      4  -8.60547064E+004  9.06442247E+000   1.45780594E-002     340.38  <-- SCF
      5  -8.60530588E+004  9.29504350E+000  -3.05106521E-002     432.63  <-- SCF
      6  -8.60528381E+004  9.29423774E+000  -4.08802728E-003     517.37  <-- SCF
      7  -8.60529914E+004  9.28503305E+000   2.83950151E-003     601.33  <-- SCF
      8  -8.60528067E+004  9.28154578E+000  -3.42092628E-003     681.95  <-- SCF
      9  -8.60528063E+004  9.28189307E+000  -7.42390557E-006     755.46  <-- SCF
     10  -8.60528058E+004  9.28300966E+000  -8.64585080E-006     818.16  <-- SCF
     11  -8.60528054E+004  9.28335278E+000  -6.93367638E-006     870.84  <-- SCF
     12  -8.60528054E+004  9.28347288E+000   1.12092644E-007     923.48  <-- SCF
------------------------------------------------------------------------ <-- SCF
 
Final energy, E             =  -86052.26820796     eV
Final free energy (E-TS)    =  -86052.80542172     eV
(energies not corrected for finite basis set)
 
NB est. 0K energy (E-0.5TS)      =  -86052.53681484     eV
 
Calculating total energy with cut-off of  595.000 eV.
------------------------------------------------------------------------ <-- SCF
SCF loop      Energy           Fermi           Energy gain       Timer   <-- SCF
                               energy          per atom          (sec)   <-- SCF
------------------------------------------------------------------------ <-- SCF
Initial  -8.60522671E+004  0.00000000E+000                       939.89  <-- SCF
      1  -8.60528413E+004  9.28396690E+000   1.06335137E-002    1024.60  <-- SCF
      2  -8.60528415E+004  9.28396536E+000   3.62185191E-006    1082.58  <-- SCF
      3  -8.60545617E+004  9.28899102E+000   3.18543975E-002    1164.84  <-- SCF
      4  -8.60528012E+004  9.28427511E+000  -3.26006904E-002    1248.08  <-- SCF
      5  -8.60528067E+004  9.28409377E+000   1.00153509E-004    1322.17  <-- SCF
      6  -8.60528073E+004  9.28373578E+000   1.24903243E-005    1391.78  <-- SCF
      7  -8.60528064E+004  9.28361742E+000  -1.76343846E-005    1449.12  <-- SCF
      8  -8.60528064E+004  9.28362976E+000   3.08491660E-007    1501.16  <-- SCF
      9  -8.60528064E+004  9.28363949E+000   8.34743136E-008    1553.03  <-- SCF
------------------------------------------------------------------------ <-- SCF
 
Final energy, E             =  -86052.26920276     eV
Final free energy (E-TS)    =  -86052.80639640     eV
(energies not corrected for finite basis set)
 
NB est. 0K energy (E-0.5TS)      =  -86052.53779958     eV
 
Calculating total energy with cut-off of  600.000 eV.
------------------------------------------------------------------------ <-- SCF
SCF loop      Energy           Fermi           Energy gain       Timer   <-- SCF
                               energy          per atom          (sec)   <-- SCF
------------------------------------------------------------------------ <-- SCF
Initial  -8.60522690E+004  0.00000000E+000                      1569.26  <-- SCF
      1  -8.60528159E+004  9.28355572E+000   1.01280233E-002    1652.10  <-- SCF
      2  -8.60528160E+004  9.28355530E+000   1.01975550E-006    1704.73  <-- SCF
      3  -8.60532680E+004  9.28540027E+000   8.37049838E-003    1787.04  <-- SCF
      4  -8.60528044E+004  9.28380585E+000  -8.58401667E-003    1870.32  <-- SCF
      5  -8.60528074E+004  9.28373902E+000   5.43237912E-005    1942.57  <-- SCF
      6  -8.60528073E+004  9.28359609E+000  -8.22653440E-007    1998.06  <-- SCF
      7  -8.60528073E+004  9.28358254E+000  -7.24566676E-007    2050.43  <-- SCF
------------------------------------------------------------------------ <-- SCF
 
Final energy, E             =  -86052.27007137     eV
Final free energy (E-TS)    =  -86052.80727427     eV
(energies not corrected for finite basis set)
 
NB est. 0K energy (E-0.5TS)      =  -86052.53867282     eV
 
 For future reference: finite basis dEtot/dlog(Ecut) =      -0.106525eV
 Total energy corrected for finite basis set =  -86052.807253 eV

 ******************* Unconstrained Forces *******************
 *                                                          *
 *               Cartesian components (eV/A)                *
 * -------------------------------------------------------- *
 *                         x            y            z      *
 *                                                          *
 * Ti              1     -0.02972     -0.00365      0.00130 *
 * Ti              2     -0.00373     -0.00391      0.00451 *
 * Ti              3     -0.01078     -0.00389      0.00236 *
 * Ti              4     -0.00303     -0.00011      0.00161 *
 * Ti              5      0.00246      0.00244      0.00155 *
 * Ti              6     -0.00095     -0.00580      0.00105 *
 * Ti              7     -0.00312      0.00419      0.00239 *
 * Ti              8      0.00281      0.00218      0.00253 *
 * Ti              9     -0.00099      0.01053      0.00224 *
 * Ti             10     -0.00272     -0.00416      0.00252 *
 * Ti             11      0.00482     -0.00597      0.00407 *
 * Ti             12     -0.00319     -0.00553     -0.00259 *
 * Ti             13      0.00099     -0.00046      0.00169 *
 * Ti             14      0.00058     -0.00213      0.00098 *
 * Ti             15     -0.00233     -0.00115      0.00211 *
 * Ti             16      0.00075      0.00520      0.00131 *
 * Ti             17      0.00204      0.00828      0.00187 *
 * Ti             18     -0.00356      0.00704      0.00207 *
 * Ti             19     -0.00461     -0.00354     -0.00402 *
 * Ti             20      0.00361     -0.00428     -0.00864 *
 * Ti             21     -0.00006     -0.00448     -0.00017 *
 * Ti             22      0.00074     -0.00179     -0.00344 *
 * Ti             23      0.00087     -0.00016     -0.00270 *
 * Ti             24     -0.00240     -0.00110     -0.00304 *
 * Ti             25      0.00039      0.00532     -0.00367 *
 * Ti             26      0.00216      0.00511     -0.00441 *
 * Ti             27     -0.00320      0.00582     -0.00459 *
 * Ti             28      0.00871      0.00079      0.00995 *
 * Ti             29      0.00118     -0.00697      0.00390 *
 * Ti             30      0.00472     -0.01193     -0.00230 *
 * Ti             31      0.00166      0.00291      0.00244 *
 * Ti             32     -0.00344      0.00390      0.00399 *
 * Ti             33     -0.00028      0.00391      0.00427 *
 * Ti             34      0.00848     -0.00409      0.00899 *
 * Ti             35      0.00265      0.00251      0.00524 *
 * Ti             36      0.00354      0.00766     -0.00055 *
 * Ti             37      0.00321     -0.00545     -0.00336 *
 * Ti             38     -0.00304     -0.00735     -0.00280 *
 * Ti             39     -0.00186     -0.00627     -0.00278 *
 * Ti             40      0.00223      0.00359     -0.00134 *
 * Ti             41      0.00119      0.00574     -0.00082 *
 * Ti             42     -0.00222      0.00522     -0.00165 *
 * Ti             43      0.00352      0.00163     -0.00184 *
 * Ti             44     -0.00078      0.00137     -0.00246 *
 * Ti             45     -0.00431      0.00019     -0.00307 *
 * Ti             46      0.00875      0.00110     -0.00653 *
 * Ti             47      0.00136     -0.00571     -0.00103 *
 * Ti             48      0.00416     -0.01061      0.00506 *
 * Ti             49      0.00284      0.00439     -0.00085 *
 * Ti             50     -0.00371      0.00421     -0.00291 *
 * Ti             51     -0.00060      0.00378     -0.00211 *
 * Ti             52      0.00915     -0.00589     -0.00700 *
 * Ti             53      0.00094      0.00103     -0.00298 *
 * Ti             54      0.00412      0.00637      0.00363 *
 *                                                          *
 ************************************************************

 ******************** Constrained Forces ********************
 *                                                          *
 *               Cartesian components (eV/A)                *
 * -------------------------------------------------------- *
 *                         x            y            z      *
 *                                                          *
 * Ti              1     -0.02972     -0.00365      0.00130 *
 * Ti              2     -0.00373     -0.00391      0.00451 *
 * Ti              3     -0.01078     -0.00389      0.00236 *
 * Ti              4     -0.00303     -0.00011      0.00161 *
 * Ti              5      0.00246      0.00244      0.00155 *
 * Ti              6     -0.00095     -0.00580      0.00105 *
 * Ti              7     -0.00312      0.00419      0.00239 *
 * Ti              8      0.00281      0.00218      0.00253 *
 * Ti              9     -0.00099      0.01053      0.00224 *
 * Ti             10     -0.00272     -0.00416      0.00252 *
 * Ti             11      0.00482     -0.00597      0.00407 *
 * Ti             12     -0.00319     -0.00553     -0.00259 *
 * Ti             13      0.00099     -0.00046      0.00169 *
 * Ti             14      0.00058     -0.00213      0.00098 *
 * Ti             15     -0.00233     -0.00115      0.00211 *
 * Ti             16      0.00075      0.00520      0.00131 *
 * Ti             17      0.00204      0.00828      0.00187 *
 * Ti             18     -0.00356      0.00704      0.00207 *
 * Ti             19     -0.00461     -0.00354     -0.00402 *
 * Ti             20      0.00361     -0.00428     -0.00864 *
 * Ti             21     -0.00006     -0.00448     -0.00017 *
 * Ti             22      0.00074     -0.00179     -0.00344 *
 * Ti             23      0.00087     -0.00016     -0.00270 *
 * Ti             24     -0.00240     -0.00110     -0.00304 *
 * Ti             25      0.00039      0.00532     -0.00367 *
 * Ti             26      0.00216      0.00511     -0.00441 *
 * Ti             27     -0.00320      0.00582     -0.00459 *
 * Ti             28      0.00871      0.00079      0.00995 *
 * Ti             29      0.00118     -0.00697      0.00390 *
 * Ti             30      0.00472     -0.01193     -0.00230 *
 * Ti             31      0.00166      0.00291      0.00244 *
 * Ti             32     -0.00344      0.00390      0.00399 *
 * Ti             33     -0.00028      0.00391      0.00427 *
 * Ti             34      0.00848     -0.00409      0.00899 *
 * Ti             35      0.00265      0.00251      0.00524 *
 * Ti             36      0.00354      0.00766     -0.00055 *
 * Ti             37      0.00321     -0.00545     -0.00336 *
 * Ti             38     -0.00304     -0.00735     -0.00280 *
 * Ti             39     -0.00186     -0.00627     -0.00278 *
 * Ti             40      0.00223      0.00359     -0.00134 *
 * Ti             41      0.00119      0.00574     -0.00082 *
 * Ti             42     -0.00222      0.00522     -0.00165 *
 * Ti             43      0.00352      0.00163     -0.00184 *
 * Ti             44     -0.00078      0.00137     -0.00246 *
 * Ti             45     -0.00431      0.00019     -0.00307 *
 * Ti             46      0.00875      0.00110     -0.00653 *
 * Ti             47      0.00136     -0.00571     -0.00103 *
 * Ti             48      0.00416     -0.01061      0.00506 *
 * Ti             49      0.00284      0.00439     -0.00085 *
 * Ti             50     -0.00371      0.00421     -0.00291 *
 * Ti             51     -0.00060      0.00378     -0.00211 *
 * Ti             52      0.00915     -0.00589     -0.00700 *
 * Ti             53      0.00094      0.00103     -0.00298 *
 * Ti             54      0.00412      0.00637      0.00363 *
 *                                                          *
 ************************************************************

 ***************** Stress Tensor *****************
 *                                               *
 *          Cartesian components (GPa)           *
 * --------------------------------------------- *
 *             x             y             z     *
 *                                               *
 *  x     -0.115294      0.000010      0.000021  *
 *  y      0.000010     -0.115901      0.000020  *
 *  z      0.000021      0.000020     -0.115588  *
 *                                               *
 *  Pressure:    0.1156                          *
 *                                               *
 *************************************************

 Pseudo atomic calculation performed for Ti 3s2 3p6 3d2 4s2

 Converged in 31 iterations to a total energy of -1585.9998 eV

Charge spilling parameter for spin component 1 = 0.07%

     Atomic Populations (Mulliken)
     -----------------------------
Species          Ion     s      p      d      f     Total  Charge (e)
=====================================================================
  Ti              1     2.31   6.88   2.81   0.00  12.00     0.00
  Ti              2     2.31   6.88   2.81   0.00  12.00     0.00
  Ti              3     2.31   6.88   2.81   0.00  12.00    -0.00
  Ti              4     2.31   6.88   2.81   0.00  12.00    -0.00
  Ti              5     2.31   6.88   2.81   0.00  12.00    -0.00
  Ti              6     2.31   6.88   2.81   0.00  12.00    -0.00
  Ti              7     2.31   6.88   2.81   0.00  12.00    -0.00
  Ti              8     2.31   6.88   2.81   0.00  12.00     0.00
  Ti              9     2.31   6.88   2.81   0.00  12.00    -0.00
  Ti             10     2.31   6.88   2.81   0.00  12.00     0.00
  Ti             11     2.31   6.88   2.81   0.00  12.00     0.00
  Ti             12     2.31   6.88   2.81   0.00  12.00     0.00
  Ti             13     2.31   6.88   2.81   0.00  12.00     0.00
  Ti             14     2.31   6.88   2.81   0.00  12.00     0.00
  Ti             15     2.31   6.88   2.81   0.00  12.00    -0.00
  Ti             16     2.31   6.88   2.81   0.00  12.00     0.00
  Ti             17     2.31   6.88   2.81   0.00  12.00    -0.00
  Ti             18     2.31   6.88   2.81   0.00  12.00     0.00
  Ti             19     2.31   6.88   2.81   0.00  12.00    -0.00
  Ti             20     2.31   6.88   2.81   0.00  12.00     0.00
  Ti             21     2.31   6.88   2.81   0.00  12.00     0.00
  Ti             22     2.31   6.88   2.81   0.00  12.00    -0.00
  Ti             23     2.31   6.88   2.81   0.00  12.00    -0.00
  Ti             24     2.31   6.88   2.81   0.00  12.00    -0.00
  Ti             25     2.31   6.88   2.81   0.00  12.00     0.00
  Ti             26     2.31   6.88   2.81   0.00  12.00     0.00
  Ti             27     2.31   6.88   2.81   0.00  12.00     0.00
  Ti             28     2.31   6.88   2.81   0.00  12.00    -0.00
  Ti             29     2.31   6.88   2.81   0.00  12.00     0.00
  Ti             30     2.31   6.88   2.81   0.00  12.00    -0.00
  Ti             31     2.31   6.88   2.81   0.00  12.00    -0.00
  Ti             32     2.31   6.88   2.81   0.00  12.00    -0.00
  Ti             33     2.31   6.88   2.81   0.00  12.00    -0.00
  Ti             34     2.30   6.88   2.81   0.00  12.00     0.00
  Ti             35     2.31   6.88   2.81   0.00  12.00     0.00
  Ti             36     2.31   6.88   2.81   0.00  12.00     0.00
  Ti             37     2.31   6.88   2.81   0.00  12.00     0.00
  Ti             38     2.31   6.88   2.81   0.00  12.00    -0.00
  Ti             39     2.31   6.88   2.81   0.00  12.00     0.00
  Ti             40     2.31   6.88   2.81   0.00  12.00     0.00
  Ti             41     2.31   6.88   2.81   0.00  12.00    -0.00
  Ti             42     2.31   6.88   2.81   0.00  12.00    -0.00
  Ti             43     2.31   6.88   2.81   0.00  12.00     0.00
  Ti             44     2.31   6.88   2.81   0.00  12.00     0.00
  Ti             45     2.31   6.88   2.81   0.00  12.00     0.00
  Ti             46     2.30   6.88   2.81   0.00  12.00    -0.00
  Ti             47     2.31   6.88   2.81   0.00  12.00     0.00
  Ti             48     2.31   6.88   2.81   0.00  12.00     0.00
  Ti             49     2.31   6.88   2.81   0.00  12.00    -0.00
  Ti             50     2.31   6.88   2.81   0.00  12.00    -0.00
  Ti             51     2.31   6.88   2.81   0.00  12.00    -0.00
  Ti             52     2.31   6.88   2.81   0.00  12.00    -0.00
  Ti             53     2.31   6.88   2.81   0.00  12.00     0.00
  Ti             54     2.31   6.88   2.81   0.00  12.00     0.00
=====================================================================

                 Bond                   Population      Length (A)
======================================================================
             Ti 1  -- Ti 28                  0.11        2.73584
             Ti 1  -- Ti 46                  0.11        2.73584
             Ti 1  -- Ti 34                  0.11        2.73584
             Ti 1  -- Ti 52                  0.11        2.73584
             Ti 27 -- Ti 54                  0.11        2.74160
             Ti 25 -- Ti 52                  0.11        2.74160
             Ti 21 -- Ti 48                  0.11        2.74160
             Ti 9  -- Ti 36                  0.11        2.74160
             Ti 26 -- Ti 53                  0.11        2.74160
             Ti 24 -- Ti 51                  0.11        2.74160
             Ti 18 -- Ti 45                  0.11        2.74160
             Ti 22 -- Ti 49                  0.11        2.74160
             Ti 20 -- Ti 47                  0.11        2.74160
             Ti 19 -- Ti 46                  0.11        2.74160
             Ti 16 -- Ti 43                  0.11        2.74160
             Ti 12 -- Ti 39                  0.11        2.74160
             Ti 8  -- Ti 35                  0.11        2.74160
             Ti 7  -- Ti 34                  0.11        2.74160
             Ti 6  -- Ti 33                  0.11        2.74160
             Ti 3  -- Ti 30                  0.12        2.74160
             Ti 25 -- Ti 54                  0.11        2.74160
             Ti 23 -- Ti 50                  0.11        2.74160
             Ti 21 -- Ti 54                  0.11        2.74160
             Ti 17 -- Ti 44                  0.11        2.74160
             Ti 15 -- Ti 42                  0.11        2.74160
             Ti 10 -- Ti 37                  0.11        2.74160
             Ti 9  -- Ti 54                  0.11        2.74160
             Ti 4  -- Ti 31                  0.11        2.74160
             Ti 2  -- Ti 29                  0.11        2.74160
             Ti 19 -- Ti 52                  0.11        2.74160
             Ti 19 -- Ti 48                  0.11        2.74160
             Ti 13 -- Ti 40                  0.11        2.74160
             Ti 11 -- Ti 38                  0.11        2.74160
             Ti 7  -- Ti 52                  0.11        2.74160
             Ti 7  -- Ti 36                  0.11        2.74160
             Ti 5  -- Ti 32                  0.11        2.74160
             Ti 3  -- Ti 48                  0.12        2.74160
             Ti 3  -- Ti 36                  0.12        2.74160
             Ti 22 -- Ti 51                  0.11        2.74160
             Ti 20 -- Ti 53                  0.11        2.74160
             Ti 16 -- Ti 45                  0.11        2.74160
             Ti 14 -- Ti 41                  0.11        2.74160
             Ti 12 -- Ti 45                  0.11        2.74160
             Ti 8  -- Ti 53                  0.11        2.74160
             Ti 6  -- Ti 51                  0.11        2.74160
             Ti 10 -- Ti 43                  0.11        2.74160
             Ti 10 -- Ti 39                  0.11        2.74160
             Ti 4  -- Ti 49                  0.11        2.74160
             Ti 4  -- Ti 33                  0.11        2.74160
             Ti 2  -- Ti 47                  0.11        2.74160
             Ti 2  -- Ti 35                  0.11        2.74160
             Ti 19 -- Ti 54                  0.11        2.74160
             Ti 13 -- Ti 42                  0.11        2.74160
             Ti 11 -- Ti 44                  0.11        2.74160
             Ti 7  -- Ti 54                  0.11        2.74160
             Ti 5  -- Ti 50                  0.11        2.74160
             Ti 3  -- Ti 54                  0.12        2.74160
             Ti 10 -- Ti 45                  0.11        2.74160
             Ti 4  -- Ti 51                  0.11        2.74160
             Ti 2  -- Ti 53                  0.11        2.74160
             Ti 27 -- Ti 53                  0.11        2.74160
             Ti 27 -- Ti 51                  0.11        2.74160
             Ti 27 -- Ti 45                  0.11        2.74160
             Ti 26 -- Ti 52                  0.11        2.74160
             Ti 24 -- Ti 48                  0.11        2.74160
             Ti 25 -- Ti 49                  0.11        2.74160
             Ti 25 -- Ti 43                  0.11        2.74160
             Ti 21 -- Ti 47                  0.11        2.74160
             Ti 21 -- Ti 39                  0.11        2.74160
             Ti 18 -- Ti 36                  0.11        2.74160
             Ti 9  -- Ti 35                  0.11        2.74160
             Ti 9  -- Ti 33                  0.11        2.74160
             Ti 26 -- Ti 50                  0.11        2.74160
             Ti 26 -- Ti 44                  0.11        2.74160
             Ti 24 -- Ti 50                  0.11        2.74160
             Ti 24 -- Ti 42                  0.11        2.74160
             Ti 22 -- Ti 46                  0.11        2.74160
             Ti 20 -- Ti 46                  0.11        2.74160
             Ti 19 -- Ti 37                  0.11        2.74160
             Ti 18 -- Ti 44                  0.11        2.74160
             Ti 18 -- Ti 42                  0.11        2.74160
             Ti 17 -- Ti 43                  0.11        2.74160
             Ti 17 -- Ti 35                  0.11        2.74160
             Ti 16 -- Ti 34                  0.11        2.74160
             Ti 15 -- Ti 39                  0.11        2.74160
             Ti 15 -- Ti 33                  0.11        2.74160
             Ti 12 -- Ti 30                  0.11        2.74160
             Ti 8  -- Ti 34                  0.11        2.74160
             Ti 7  -- Ti 31                  0.11        2.74160
             Ti 6  -- Ti 30                  0.11        2.74160
             Ti 3  -- Ti 29                  0.11        2.74160
             Ti 25 -- Ti 51                  0.11        2.74160
             Ti 23 -- Ti 49                  0.11        2.74160
             Ti 23 -- Ti 47                  0.11        2.74160
             Ti 22 -- Ti 40                  0.11        2.74160
             Ti 21 -- Ti 53                  0.11        2.74160
             Ti 20 -- Ti 38                  0.11        2.74160
             Ti 16 -- Ti 40                  0.11        2.74160
             Ti 12 -- Ti 38                  0.11        2.74160
             Ti 10 -- Ti 28                  0.11        2.74160
             Ti 8  -- Ti 32                  0.11        2.74160
             Ti 6  -- Ti 32                  0.11        2.74160
             Ti 4  -- Ti 28                  0.11        2.74160
             Ti 2  -- Ti 28                  0.11        2.74160
             Ti 25 -- Ti 45                  0.11        2.74160
             Ti 23 -- Ti 41                  0.11        2.74160
             Ti 22 -- Ti 48                  0.11        2.74160
             Ti 21 -- Ti 45                  0.11        2.74160
             Ti 20 -- Ti 52                  0.11        2.74160
             Ti 17 -- Ti 41                  0.11        2.74160
             Ti 15 -- Ti 41                  0.11        2.74160
             Ti 13 -- Ti 37                  0.11        2.74160
             Ti 13 -- Ti 31                  0.11        2.74160
             Ti 11 -- Ti 37                  0.11        2.74160
             Ti 11 -- Ti 29                  0.11        2.74160
             Ti 9  -- Ti 53                  0.11        2.74160
             Ti 9  -- Ti 51                  0.11        2.74160
             Ti 8  -- Ti 52                  0.11        2.74160
             Ti 6  -- Ti 48                  0.11        2.74160
             Ti 5  -- Ti 31                  0.11        2.74160
             Ti 5  -- Ti 29                  0.11        2.74160
             Ti 22 -- Ti 42                  0.11        2.74160
             Ti 20 -- Ti 44                  0.11        2.74160
             Ti 19 -- Ti 43                  0.11        2.74160
             Ti 19 -- Ti 39                  0.11        2.74160
             Ti 16 -- Ti 42                  0.11        2.74160
             Ti 16 -- Ti 36                  0.11        2.74160
             Ti 14 -- Ti 40                  0.11        2.74160
             Ti 14 -- Ti 38                  0.11        2.74160
             Ti 14 -- Ti 32                  0.11        2.74160
             Ti 12 -- Ti 44                  0.11        2.74160
             Ti 12 -- Ti 36                  0.11        2.74160
             Ti 10 -- Ti 34                  0.11        2.74160
             Ti 10 -- Ti 30                  0.11        2.74160
             Ti 8  -- Ti 50                  0.11        2.74160
             Ti 7  -- Ti 49                  0.11        2.74160
             Ti 7  -- Ti 33                  0.11        2.74160
             Ti 6  -- Ti 50                  0.11        2.74160
             Ti 4  -- Ti 46                  0.11        2.74160
             Ti 4  -- Ti 30                  0.11        2.74160
             Ti 3  -- Ti 47                  0.11        2.74160
             Ti 3  -- Ti 35                  0.11        2.74160
             Ti 2  -- Ti 46                  0.11        2.74160
             Ti 2  -- Ti 34                  0.11        2.74160
             Ti 13 -- Ti 39                  0.11        2.74160
             Ti 13 -- Ti 33                  0.11        2.74160
             Ti 11 -- Ti 43                  0.11        2.74160
             Ti 11 -- Ti 35                  0.11        2.74160
             Ti 5  -- Ti 49                  0.11        2.74160
             Ti 5  -- Ti 47                  0.11        2.74160
             Ti 19 -- Ti 45                  0.11        2.74160
             Ti 7  -- Ti 51                  0.11        2.74160
             Ti 3  -- Ti 53                  0.11        2.74160
             Ti 10 -- Ti 36                  0.11        2.74160
             Ti 4  -- Ti 48                  0.11        2.74160
             Ti 2  -- Ti 52                  0.11        2.74160
             Ti 27 -- Ti 50                  0.11        2.74160
             Ti 27 -- Ti 44                  0.11        2.74160
             Ti 27 -- Ti 42                  0.11        2.74160
             Ti 26 -- Ti 49                  0.11        2.74160
             Ti 26 -- Ti 43                  0.11        2.74160
             Ti 25 -- Ti 40                  0.11        2.74160
             Ti 24 -- Ti 47                  0.11        2.74160
             Ti 24 -- Ti 39                  0.11        2.74160
             Ti 23 -- Ti 46                  0.11        2.74160
             Ti 21 -- Ti 38                  0.11        2.74160
             Ti 18 -- Ti 35                  0.11        2.74160
             Ti 18 -- Ti 33                  0.11        2.74160
             Ti 17 -- Ti 34                  0.11        2.74160
             Ti 15 -- Ti 30                  0.11        2.74160
             Ti 9  -- Ti 32                  0.11        2.74160
             Ti 26 -- Ti 41                  0.11        2.74160
             Ti 24 -- Ti 41                  0.11        2.74160
             Ti 22 -- Ti 37                  0.11        2.74160
             Ti 20 -- Ti 37                  0.11        2.74160
             Ti 18 -- Ti 41                  0.11        2.74160
             Ti 16 -- Ti 31                  0.11        2.74160
             Ti 12 -- Ti 29                  0.11        2.74160
             Ti 8  -- Ti 31                  0.11        2.74160
             Ti 6  -- Ti 29                  0.11        2.74160
             Ti 5  -- Ti 28                  0.11        2.74160
             Ti 23 -- Ti 40                  0.11        2.74160
             Ti 23 -- Ti 38                  0.11        2.74160
             Ti 17 -- Ti 40                  0.11        2.74160
             Ti 17 -- Ti 32                  0.11        2.74160
             Ti 15 -- Ti 38                  0.11        2.74160
             Ti 15 -- Ti 32                  0.11        2.74160
             Ti 14 -- Ti 37                  0.11        2.74160
             Ti 13 -- Ti 28                  0.11        2.74160
             Ti 11 -- Ti 28                  0.11        2.74160
             Ti 25 -- Ti 42                  0.11        2.74160
             Ti 22 -- Ti 39                  0.11        2.74160
             Ti 21 -- Ti 44                  0.11        2.74160
             Ti 20 -- Ti 43                  0.11        2.74160
             Ti 16 -- Ti 33                  0.11        2.74160
             Ti 14 -- Ti 31                  0.11        2.74160
             Ti 14 -- Ti 29                  0.11        2.74160
             Ti 12 -- Ti 35                  0.11        2.74160
             Ti 9  -- Ti 50                  0.11        2.74160
             Ti 8  -- Ti 49                  0.11        2.74160
             Ti 6  -- Ti 47                  0.11        2.74160
             Ti 13 -- Ti 30                  0.11        2.74160
             Ti 11 -- Ti 34                  0.11        2.74160
             Ti 5  -- Ti 46                  0.11        2.74160
             Ti 27 -- Ti 41                  0.11        2.74160
             Ti 26 -- Ti 40                  0.11        2.74160
             Ti 24 -- Ti 38                  0.11        2.74160
             Ti 18 -- Ti 32                  0.11        2.74160
             Ti 23 -- Ti 37                  0.11        2.74160
             Ti 17 -- Ti 31                  0.11        2.74160
             Ti 15 -- Ti 29                  0.11        2.74160
             Ti 14 -- Ti 28                  0.11        2.74160
             Ti 1  -- Ti 30                  0.11        2.74739
             Ti 1  -- Ti 48                  0.11        2.74739
             Ti 1  -- Ti 36                  0.11        2.74739
             Ti 1  -- Ti 54                  0.11        2.74739
======================================================================

 
 A BibTeX formatted list of references used in this run has been written to 
 castep.bib
 
Initialisation time =     10.76 s
Calculation time    =   2429.68 s
Finalisation time   =      0.10 s
Total time          =   2440.55 s
Peak Memory Use     = 1623180 kB
  
Overall parallel efficiency rating: Very good (83%)                             
  
Data was distributed by:-
G-vector (3-way); efficiency rating: Very good (84%)                            
k-point (14-way); efficiency rating: Excellent (99%)                            
