2
Lattice="2.95 0.0 0.0 -1.4749999999999994 2.5547749411640948 0.0 0.0 0.0 4.6846000000000005" Properties=species:S:1:pos:R:3 energy=-3187.20995234 pbc="T T T" n_minim_iter=1
Ti       0.00000000       0.00000000       0.00000000 
Ti       0.00000000       1.70318329       2.34230000 
2
Lattice="2.84820594836439 1.4321975252567416e-14 -2.644536088610371e-14 -1.4241029741821818 2.466618707376068 8.86039332348876e-14 -4.199523308713269e-14 1.382239238137071e-13 4.5109723840094045" Properties=species:S:1:pos:R:3 stress="-0.014765065193001085 3.3924991124728564e-14 -6.834347239105457e-14 3.3924991124728564e-14 -0.01476506549618457 1.3490472913711418e-14 -6.834347239105457e-14 1.3490472913711418e-14 -0.007613338349143794" pbc="T T T" n_minim_iter=2
Ti      -0.00000000      -0.00000000      -0.00000000 
Ti       0.00000000       1.64441247       2.25548619 
2
Lattice="2.8669661655872427 -2.9318331621942335e-14 6.127577714927229e-14 -1.433483082793646 2.4828655324181472 3.026003925206831e-14 9.73059341130444e-14 1.1166636563571013e-13 4.526068215932085" Properties=species:S:1:pos:R:3 stress="-0.0038309052330516096 -6.397158424492024e-14 7.973926772672264e-14 -6.397158424492024e-14 -0.0038309053849440067 1.3250296447695732e-14 7.973926772672264e-14 1.3250296447695732e-14 0.00252853483356737" pbc="T T T" n_minim_iter=3
Ti      -0.00000000      -0.00000000      -0.00000000 
Ti       0.00000000       1.65524368       2.26303411 
