2
Lattice="2.81836412949597 -2.8821314730452906e-14 6.023700397912582e-14 -1.4091820647480091 2.4407749344666203 2.9747058130245024e-14 9.565636231885183e-14 1.0977334966713962e-13 4.449340372603235" Properties=species:S:1:pos:R:3 energy=-3187.27070005 pbc="T T T" n_minim_iter=0
Ti      -0.00000000      -0.00000000      -0.00000000 
Ti       0.00000000       1.62718329       2.22467019 
