2
Lattice="3.046606163417896 -3.1155376332194536e-14 6.511522967099822e-14 -1.523303081708974 2.63843833415229 3.215609001501256e-14 1.0340298471754518e-13 1.18663220332266e-13 4.809665174365283" Properties=species:S:1:pos:R:3 energy=-3186.94904595 pbc="T T T" n_minim_iter=0
Ti      -0.00000000      -0.00000000      -0.00000000 
Ti       0.00000000       1.75895889       2.40483259 
