2
Lattice="2.890661175376468 -2.956064287176603e-14 6.178221149677949e-14 -1.445330587688259 2.503386012848696 3.05101335625302e-14 9.811015185688585e-14 1.1258927001408232e-13 4.563475434744256" Properties=species:S:1:pos:R:3 energy=-3187.29667644 pbc="T T T" n_minim_iter=0
Ti      -0.00000000      -0.00000000      -0.00000000 
Ti       0.00000000       1.66892401       2.28173772 
