2
Lattice="2.8428728738463724 -2.9071947438689045e-14 6.07608303064296e-14 -1.4214364369232106 2.4620001296994345 3.0005741185163527e-14 9.648819852661022e-14 1.1072794844851157e-13 4.488032230968448" Properties=species:S:1:pos:R:3 energy=-3187.29375973 pbc="T T T" n_minim_iter=0
Ti      -0.00000000      -0.00000000      -0.00000000 
Ti       0.00000000       1.64133342       2.24401612 
