2
Lattice="3.0676179043820198 -3.137024778653357e-14 6.556431441161711e-14 -1.5338089521910363 2.656635035613968 3.237786316112099e-14 1.04116131285648e-13 1.1948161323041243e-13 4.842836327230856" Properties=species:S:1:pos:R:3 energy=-3186.88597351 pbc="T T T" n_minim_iter=0
Ti      -0.00000000      -0.00000000      -0.00000000 
Ti       0.00000000       1.77109002       2.42141816 
