2
Lattice="2.727353172465282 1.3149392559040718e-08 1.0742751537617357e-10 -1.3636765748449327 2.3619331569285245 -4.077207376439325e-11 6.132150231865258e-11 8.467140721072374e-12 3.7510179486801487" Properties=species:S:1:pos:R:3 stress="1.0432131736391161 -2.0841556309816028e-08 1.9307939991809295e-10 -2.0841556309816028e-08 1.0432570421522875 2.72089442343618e-11 1.9307939991809295e-10 2.72089442343618e-11 1.0430914431997063" pbc="T T T" n_minim_iter=0
Ti       0.00000000       0.00000008      -0.00000000 
Ti       0.00000001       1.57462203       1.87550897 
