2
Lattice="2.6964039130637114 -1.5740014290484106e-13 2.327318911265998e-13 -1.3482019565319916 2.3351542879470477 -2.823337919510227e-13 3.659730314829248e-13 -3.041986952070151e-13 4.349258881538327" Properties=species:S:1:pos:R:3 energy=-3186.97450754 pbc="T T T" n_minim_iter=0
Ti      -0.00000000      -0.00000000      -0.00000000 
Ti       0.00000000       1.55676952       2.17462944 
