2
Lattice="3.088345681144424 -3.158221535008564e-14 6.60073299745276e-14 -1.5441728405722386 2.674585816863069 3.259663914319121e-14 1.0481963999954984e-13 1.2028894591767903e-13 4.875559186927401" Properties=species:S:1:pos:R:3 energy=-3186.82080582 pbc="T T T" n_minim_iter=0
Ti      -0.00000000      -0.00000000      -0.00000000 
Ti       0.00000000       1.78305721       2.43777959 
