2
Lattice="3.025300528160777 -3.0937499439407276e-14 6.465986351645155e-14 -1.5126502640804147 2.619987112766726 3.193121489548404e-14 1.0267986326412506e-13 1.1783338045299585e-13 4.776030051734621" Properties=species:S:1:pos:R:3 energy=-3187.01443981 pbc="T T T" n_minim_iter=0
Ti      -0.00000000      -0.00000000      -0.00000000 
Ti       0.00000000       1.74665807       2.38801503 
