2
Lattice="3.0036905009823287 -3.071650975673093e-14 6.419799158176651e-14 -1.5018452504911903 2.601272280244453 3.1703127002955955e-14 1.0194641063184522e-13 1.169916847171789e-13 4.741914386774281" Properties=species:S:1:pos:R:3 energy=-3187.08132793 pbc="T T T" n_minim_iter=0
Ti      -0.00000000      -0.00000000      -0.00000000 
Ti       0.00000000       1.73418152       2.37095719 
