2
Lattice="2.9595121644218967 -3.026473075168668e-14 6.325376631032941e-14 -1.4797560822109739 2.563012718467239 3.1236836812839276e-14 1.0044698090080311e-13 1.1527096881102373e-13 4.672170220505766" Properties=species:S:1:pos:R:3 energy=-3187.20202455 pbc="T T T" n_minim_iter=0
Ti      -0.00000000      -0.00000000      -0.00000000 
Ti       0.00000000       1.70867514       2.33608511 
