2
Lattice="2.722584229136754 -1.589283952082983e-13 2.3499156536919065e-13 -1.3612921145685142 2.357827106749002 -2.85075068165453e-13 3.695263899363866e-13 -3.0715226531234764e-13 4.391487336871187" Properties=species:S:1:pos:R:3 stress="-0.1205544454490156 -4.5009935563212236e-14 1.8025404681890124e-13 -4.5009935563212236e-14 -0.12055444559004619 1.5263436198289676e-14 1.8025404681890124e-13 1.5263436198289676e-14 -0.11878629745366058" pbc="T T T" n_minim_iter=0
Ti      -0.00000000      -0.00000000      -0.00000000 
Ti       0.00000000       1.57188473       2.19574367 
