2
Lattice="2.7787093936790694 5.010747297161138e-09 -1.1498975288005435e-10 -1.3893546925001 2.40642378885966 4.369964934986075e-11 -2.4275428013591136e-10 -3.3741794231459346e-11 3.7340774632981786" Properties=species:S:1:pos:R:3 stress="0.696252943136266 1.1361503001446319e-10 -1.8913132254474972e-10 1.1361503001446319e-10 0.6962527035334303 -2.633398317400197e-11 -1.8913132254474972e-10 -2.633398317400197e-11 0.696475280062015" pbc="T T T" n_minim_iter=0
Ti       0.00000000       0.00000003      -0.00000000 
Ti       0.00000000       1.60428249       1.86703873 
