2
Lattice="2.936919587446028 -3.003369326267708e-14 6.277089430136814e-14 -1.4684597937230393 2.5434469728594955 3.099837837747259e-14 9.968018015057261e-14 1.1439100343454935e-13 4.636503408042517" Properties=species:S:1:pos:R:3 energy=-3187.24657816 pbc="T T T" n_minim_iter=0
Ti      -0.00000000      -0.00000000      -0.00000000 
Ti       0.00000000       1.69563131       2.31825170 
