2
Lattice="2.9139739658143236 -2.9799045448431905e-14 6.228047665551921e-14 -1.4569869829071869 2.5235754816109766 3.07561936528767e-14 9.890139692896451e-14 1.1349728721089113e-13 4.600279245368875" Properties=species:S:1:pos:R:3 energy=-3187.27828821 pbc="T T T" n_minim_iter=0
Ti      -0.00000000      -0.00000000      -0.00000000 
Ti       0.00000000       1.68238365       2.30013962 
