2
Lattice="2.812758542849333 5.256455599473537e-09 -3.34789369928122e-10 -1.406379266872442 2.4359107691152846 1.270466138500135e-10 -5.399531298724245e-10 -7.519883137417817e-11 3.761776778447121" Properties=species:S:1:pos:R:3 stress="0.3531005223104635 -6.197870927545108e-10 -1.9395828255830607e-10 -6.197870927545108e-10 0.3531018270749325 -2.686053700755145e-11 -1.9395828255830607e-10 -2.686053700755145e-11 0.3646647217733848" pbc="T T T" n_minim_iter=0
Ti       0.00000000       0.00000002      -0.00000000 
Ti       0.00000000       1.62394049       1.88088839 
