2
Lattice="2.7680253988979886 -2.8306537955332884e-14 5.91611123710826e-14 -1.3840126994490183 2.3971803149529265 2.9215746675621636e-14 9.39478464452792e-14 1.0781269063876903e-13 4.3698708164833695" Properties=species:S:1:pos:R:3 energy=-3187.16196416 pbc="T T T" n_minim_iter=0
Ti      -0.00000000      -0.00000000      -0.00000000 
Ti       0.00000000       1.59812021       2.18493541 
