2
Lattice="2.669705090985418 -1.5584162328166655e-13 2.3042746361741636e-13 -1.3348525454928435 2.31203242977246 -2.795382242538132e-13 3.6234929810764044e-13 -3.0118662909910284e-13 4.306194083832002" Properties=species:S:1:pos:R:3 energy=-3186.88332304 pbc="T T T" n_minim_iter=0
Ti      -0.00000000      -0.00000000      -0.00000000 
Ti       0.00000000       1.54135495       2.15309704 
