2
Lattice="2.981764971137584 -3.049229366283666e-14 6.372937639656739e-14 -1.4908824855688179 2.58228421439807 3.147170906657146e-14 1.0120224971774901e-13 1.161377003689198e-13 4.707300638994861" Properties=species:S:1:pos:R:3 energy=-3187.14556391 pbc="T T T" n_minim_iter=0
Ti      -0.00000000      -0.00000000      -0.00000000 
Ti       0.00000000       1.72152281       2.35365032 
