4
Lattice="5.08788732 0.0 0.0 2.1837197857423574 4.595428737166331 0.0 -3.6358035528721344 -2.2977143685837693 2.718094661034239" Properties=species:S:1:pos:R:3:tags:I:1 spacegroup="P 1" energy=-1923.6893998 unit_cell=conventional pbc="T T T" n_minim_iter=1
Ti       0.00000000       0.00000000       0.00000000        0 
Al       3.63580355       2.29771437       0.00000000        1 
Al       2.54394366      -0.00000000       1.35904733        2 
Al       1.09185989       2.29771437       1.35904733        3 
4
Lattice="5.165569591495077 -0.04277566131755321 -1.5032139604917695e-11 2.178425605995317 4.683951413168555 -5.280686407812441e-12 -3.671997598754192 -2.3205878759254177 2.7957547293617804" Properties=species:S:1:pos:R:3:tags:I:1 spacegroup="P 1" stress="0.012182549939851909 0.012677335097658258 3.695733135512404e-12 0.012677335097658258 0.00013416487434301518 -2.331843341266414e-12 3.695733135512404e-12 -2.331843341266414e-12 -0.007877515236187826" unit_cell=conventional pbc="T T T" n_minim_iter=2
Ti      -0.00000000       0.00000000      -0.00000000        0 
Al       3.67199760       2.32058788      -0.00000000        1 
Al       2.58278480      -0.02138783       1.39787736        2 
Al       1.08921280       2.34197571       1.39787736        3 
4
Lattice="5.142236001598848 -0.07496721031175092 -2.468191993274875e-11 2.1393351193627184 4.676692894110382 -4.2573770755278524e-12 -3.6407855604949257 -2.3008628418961723 2.810502066215532" Properties=species:S:1:pos:R:3:tags:I:1 spacegroup="P 1" stress="0.012300505379758386 0.01011043216109306 1.5664249530818503e-12 0.01011043216109306 0.002691673640503225 -3.011283580443967e-12 1.5664249530818503e-12 -3.011283580443967e-12 -0.0036978039294002264" unit_cell=conventional pbc="T T T" n_minim_iter=3
Ti      -0.00000000       0.00000000      -0.00000000        0 
Al       3.64078556       2.30086284      -0.00000000        1 
Al       2.57111800      -0.03748360       1.40525103        2 
Al       1.06966756       2.33834645       1.40525103        3 
4
Lattice="5.027090444502383 -0.20439492098736703 -5.071386710185741e-11 1.97301432664983 4.628242656534671 1.6666462236024907e-11 -3.5000523856041195 -2.211923867751501 2.858398454105218" Properties=species:S:1:pos:R:3:tags:I:1 spacegroup="P 1" stress="0.0029254887986280005 0.0018562672425616194 -1.1850602554295724e-11 0.0018562672425616194 0.0011613149915474976 -2.442941744576157e-12 -1.1850602554295724e-11 -2.442941744576157e-12 -1.178796967706542e-05" unit_cell=conventional pbc="T T T" n_minim_iter=4
Ti      -0.00000000       0.00000000      -0.00000000        0 
Al       3.50005238       2.21192387      -0.00000000        1 
Al       2.51354522      -0.10219746       1.42919923        2 
Al       0.98650716       2.31412133       1.42919923        3 
