4
Lattice="5.027090444502383 -0.20439492098736703 -5.071386710185741e-11 1.97301432664983 4.628242656534671 1.6666462236024907e-11 -3.5000523856041195 -2.211923867751501 2.858398454105218" Properties=species:S:1:pos:R:3:tags:I:1 spacegroup="P 1" stress="0.0029254887986280005 0.0018562672425616194 -1.1850602554295724e-11 0.0018562672425616194 0.0011613149915474976 -2.442941744576157e-12 -1.1850602554295724e-11 -2.442941744576157e-12 -1.178796967706542e-05" unit_cell=conventional pbc="T T T" n_minim_iter=4
Ti      -0.00000000       0.00000000      -0.00000000        0 
Al       3.50005238       2.21192387      -0.00000000        1 
Al       2.51354522      -0.10219746       1.42919923        2 
Al       0.98650716       2.31412133       1.42919923        3 
