4
Lattice="5.109516413170985 -0.2077462530430197 -5.154538976232053e-11 2.0053645735503984 4.704128974556939 1.693973149768805e-11 -3.557440493389164 -2.2481913607344453 2.905265775077753" Properties=species:S:1:pos:R:3:tags:I:1 spacegroup="P 1" energy=-1923.81490931 unit_cell=conventional pbc="T T T" n_minim_iter=0
Ti      -0.00000000       0.00000000      -0.00000000        0 
Al       3.55744049       2.24819136      -0.00000000        1 
Al       2.55475820      -0.10387313       1.45263289        2 
Al       1.00268229       2.35206449       1.45263289        3 
