4
Lattice="4.898133409983741 -0.19915169666662136 -4.941293369263656e-11 1.922401734846194 4.5095170329143315 1.623892714995437e-11 -3.4102675724422618 -2.155182668102272 2.7850736169686208" Properties=species:S:1:pos:R:3:tags:I:1 spacegroup="P 1" energy=-1923.72616234 unit_cell=conventional pbc="T T T" n_minim_iter=0
Ti      -0.00000000       0.00000000      -0.00000000        0 
Al       3.41026757       2.15518267      -0.00000000        1 
Al       2.44906670      -0.09957585       1.39253681        2 
Al       0.96120087       2.25475852       1.39253681        3 
