4
Lattice="5.068638530672213 -0.20608421181744266 -5.113300897798132e-11 1.989320969659924 4.666494330506218 1.6804207839923053e-11 -3.528979750194313 -2.2302050593220537 2.8820226531503637" Properties=species:S:1:pos:R:3:tags:I:1 spacegroup="P 1" energy=-1923.86277727 unit_cell=conventional pbc="T T T" n_minim_iter=0
Ti      -0.00000000       0.00000000      -0.00000000        0 
Al       3.52897975       2.23020506      -0.00000000        1 
Al       2.53431926      -0.10304210       1.44101133        2 
Al       0.99466048       2.33324717       1.44101133        3 
