4
Lattice="4.666737374552751 -0.18974343658042575 -4.707858384986075e-11 1.8315842534271765 4.296479886764334 1.5471773002112456e-11 -3.2491608140159687 -2.0533682250713907 2.653502069318161" Properties=species:S:1:pos:R:3:tags:I:1 spacegroup="P 1" energy=-1922.67251972 unit_cell=conventional pbc="T T T" n_minim_iter=0
Ti      -0.00000000       0.00000000      -0.00000000        0 
Al       3.24916081       2.05336823      -0.00000000        1 
Al       2.33336869      -0.09487172       1.32675103        2 
Al       0.91579213       2.14823994       1.32675103        3 
