4
Lattice="4.941869058163577 -0.20092993090623504 -4.985414394614043e-11 1.9395669443041819 4.54978270840829 1.6383925243146516e-11 -3.4407180012614176 -2.1744263887292514 2.8099416615217576" Properties=species:S:1:pos:R:3:tags:I:1 spacegroup="P 1" energy=-1923.81560441 unit_cell=conventional pbc="T T T" n_minim_iter=0
Ti      -0.00000000       0.00000000      -0.00000000        0 
Al       3.44071800       2.17442639      -0.00000000        1 
Al       2.47093453      -0.10046496       1.40497083        2 
Al       0.96978347       2.27489135       1.40497083        3 
