4
Lattice="5.228384755314105 -0.2125792843298971 -5.274454728148886e-11 2.052017591756978 4.8135663395082675 1.7333819242330432e-11 -3.6402011735646758 -2.300493527566147 2.972854192110417" Properties=species:S:1:pos:R:3:tags:I:1 spacegroup="P 1" energy=-1923.52570763 unit_cell=conventional pbc="T T T" n_minim_iter=0
Ti      -0.00000000       0.00000000      -0.00000000        0 
Al       3.64020117       2.30049353      -0.00000000        1 
Al       2.61419238      -0.10628964       1.48642710        2 
Al       1.02600879       2.40678317       1.48642710        3 
