4
Lattice="4.853602459619448 -0.19734112648060934 -4.8963700339144014e-11 1.9049243880552353 4.468519154263185 1.609129236781266e-11 -3.379263423864388 -2.135589013869901 2.7597533644117305" Properties=species:S:1:pos:R:3:tags:I:1 spacegroup="P 1" energy=-1923.59587286 unit_cell=conventional pbc="T T T" n_minim_iter=0
Ti      -0.00000000       0.00000000      -0.00000000        0 
Al       3.37926342       2.13558901      -0.00000000        1 
Al       2.42680123      -0.09867056       1.37987668        2 
Al       0.95246219       2.23425958       1.37987668        3 
