4
Lattice="5.304722308695225 -0.2156830693848818 -5.351464930765885e-11 2.0819782793843626 4.883847295213047 1.7586903399988336e-11 -3.6933502940693534 -2.3340821128907083 3.0162596464151816" Properties=species:S:1:pos:R:3:tags:I:1 spacegroup="P 1" energy=-1923.23977138 unit_cell=conventional pbc="T T T" n_minim_iter=0
Ti      -0.00000000       0.00000000      -0.00000000        0 
Al       3.69335029       2.33408211      -0.00000000        1 
Al       2.65236115      -0.10784153       1.50812982        2 
Al       1.04098914       2.44192365       1.50812982        3 
