4
Lattice="4.808239034952859 -0.1954967089785165 -4.8506068889058925e-11 1.8871203147525637 4.426754849561246 1.5940897658895243e-11 -3.347679674879505 -2.115629070270178 2.7339597678231313" Properties=species:S:1:pos:R:3:tags:I:1 spacegroup="P 1" energy=-1923.42365277 unit_cell=conventional pbc="T T T" n_minim_iter=0
Ti      -0.00000000       0.00000000      -0.00000000        0 
Al       3.34767967       2.11562907      -0.00000000        1 
Al       2.40411952      -0.09774835       1.36697988        2 
Al       0.94356016       2.21337743       1.36697988        3 
