4
Lattice="4.507780298054156 -0.3280201452028265 2.3642359072211096e-10 1.6384670690792538 4.212256651098906 1.902312689034037e-10 -3.073123683429329 -1.9421182528885437 2.6854735051915677" Properties=species:S:1:pos:R:3:tags:I:1 spacegroup="P 1" stress="-0.17791614037139603 0.0019039126522378666 7.550761052760529e-11 0.0019039126522378666 -0.1797255957962562 4.5105701164912504e-11 7.550761052760529e-11 4.5105701164912504e-11 -0.18092880917183857" unit_cell=conventional pbc="T T T" n_minim_iter=0
Ti      -0.00000000       0.00000000      -0.00000000        0 
Al       3.07312368       1.94211825      -0.00000000        1 
Al       2.25389015      -0.16401007       1.34273675        2 
Al       0.81923353       2.10612833       1.34273675        3 
