4
Lattice="5.415269021781869 -0.2201777541207548 -5.462985727495417e-11 2.125365254632147 4.985623266561808 1.795340220069921e-11 -3.7703171382371834 -2.3827227561966655 3.0791163937288966" Properties=species:S:1:pos:R:3:tags:I:1 spacegroup="P 1" energy=-1922.70721187 unit_cell=conventional pbc="T T T" n_minim_iter=0
Ti      -0.00000000       0.00000000      -0.00000000        0 
Al       3.77031714       2.38272276      -0.00000000        1 
Al       2.70763451      -0.11008888       1.53955820        2 
Al       1.06268263       2.49281163       1.53955820        3 
