4
Lattice="5.149750482422469 -0.20938211766420448 -5.195127568450801e-11 2.0211554959395936 4.741170885302614 1.707312070227553e-11 -3.585452989209728 -2.265894383796513 2.928142825455189" Properties=species:S:1:pos:R:3:tags:I:1 spacegroup="P 1" energy=-1923.74067248 unit_cell=conventional pbc="T T T" n_minim_iter=0
Ti      -0.00000000       0.00000000      -0.00000000        0 
Al       3.58545299       2.26589438      -0.00000000        1 
Al       2.57487524      -0.10469106       1.46407141        2 
Al       1.01057775       2.37058544       1.46407141        3 
