4
Lattice="5.18936550446052 -0.2109928126355343 -5.235091658714423e-11 2.036703456911153 4.777642863847693 1.7204457561252974e-11 -3.6130344807147536 -2.2833250255832134 2.950667886224036" Properties=species:S:1:pos:R:3:tags:I:1 spacegroup="P 1" energy=-1923.64327775 unit_cell=conventional pbc="T T T" n_minim_iter=0
Ti      -0.00000000       0.00000000      -0.00000000        0 
Al       3.61303448       2.28332503      -0.00000000        1 
Al       2.59468275      -0.10549640       1.47533394        2 
Al       1.01835173       2.38882143       1.47533394        3 
