4
Lattice="4.98484398964674 -0.2026772354001386 -5.0287680002037734e-11 1.9564335904167067 4.58934802223103 1.6526401309683807e-11 -3.470638790059501 -2.1933353933934803 2.834377163343908" Properties=species:S:1:pos:R:3:tags:I:1 spacegroup="P 1" energy=-1923.86630232 unit_cell=conventional pbc="T T T" n_minim_iter=0
Ti      -0.00000000       0.00000000      -0.00000000        0 
Al       3.47063879       2.19333539      -0.00000000        1 
Al       2.49242199      -0.10133862       1.41718858        2 
Al       0.97821679       2.29467401       1.41718858        3 
