4
Lattice="5.342080738906479 -0.21720201428462832 -5.3891525452176895e-11 2.0966405813345017 4.91824171922306 1.771075891307025e-11 -3.719360660150258 -2.350519852445677 3.037501611393239" Properties=species:S:1:pos:R:3:tags:I:1 spacegroup="P 1" energy=-1923.0748965 unit_cell=conventional pbc="T T T" n_minim_iter=0
Ti      -0.00000000       0.00000000      -0.00000000        0 
Al       3.71936066       2.35051985      -0.00000000        1 
Al       2.67104037      -0.10860101       1.51875081        2 
Al       1.04832029       2.45912086       1.51875081        3 
