4
Lattice="5.266830141554158 -0.2141424234398087 -5.3132388763551286e-11 2.067106498289019 4.848961480794766 1.7461278373013066e-11 -3.666968319950937 -2.317409528654271 2.994714199168023" Properties=species:S:1:pos:R:3:tags:I:1 spacegroup="P 1" energy=-1923.3904816 unit_cell=conventional pbc="T T T" n_minim_iter=0
Ti      -0.00000000       0.00000000      -0.00000000        0 
Al       3.66696832       2.31740953      -0.00000000        1 
Al       2.63341507      -0.10707121       1.49735710        2 
Al       1.03355325       2.42448074       1.49735710        3 
