4
Lattice="4.458778805156758 -0.3244544264338133 2.338535655355357e-10 1.6206562337812769 4.166467626185705 1.8816337394054205e-10 -3.0397175193331347 -1.9210065998170962 2.6562812637357007" Properties=species:S:1:pos:R:3:tags:I:1 spacegroup="P 1" energy=-1922.09396121 unit_cell=conventional pbc="T T T" n_minim_iter=0
Ti      -0.00000000       0.00000000      -0.00000000        0 
Al       3.03971752       1.92100660      -0.00000000        1 
Al       2.22938940      -0.16222721       1.32814063        2 
Al       0.81032812       2.08323381       1.32814063        3 
