 +-------------------------------------------------+
 |                                                 |
 |      CCC   AA    SSS  TTTTT  EEEEE  PPPP        |
 |     C     A  A  S       T    E      P   P       |
 |     C     AAAA   SS     T    EEE    PPPP        |
 |     C     A  A     S    T    E      P           |
 |      CCC  A  A  SSS     T    EEEEE  P           |
 |                                                 |
 +-------------------------------------------------+
 |                                                 |
 | Welcome to Academic Release CASTEP version 17.21|          
 | Ab Initio Total Energy Program                  |
 |                                                 |
 | Authors:                                        |
 | M. Segall, M. Probert, C. Pickard, P. Hasnip,   |
 | S. Clark, K. Refson, J. R. Yates, M. Payne      |
 |                                                 |
 | Contributors:                                   |
 | P. Lindan, P. Haynes, J. White, V. Milman,      |
 | N. Govind, M. Gibson, P. Tulip, V. Cocula,      |
 | B. Montanari, D. Quigley, M. Glover,            |
 | L. Bernasconi, A. Perlov, M. Plummer,           |
 | E. McNellis, J. Meyer, J. Gale, D. Jochym       |
 | J. Aarons, B. Walker, R. Gillen, D. Jones       |
 | T. Green, I. J. Bush, C. J. Armstrong,          |
 | E. J. Higgins, E. L. Brown, M. S. McFly,        |
 | J. Wilkins, B-C. Shih, P. J. P. Byrne           |
 |                                                 |
 | Copyright (c) 2000 - 2017                       |
 |                                                 |
 |     Distributed under the terms of an           |
 |     Agreement between the United Kingdom        |
 |     Car-Parrinello (UKCP) Consortium,           |
 |     Daresbury Laboratory and Accelrys, Inc.     |
 |                                                 |
 | Please cite                                     |
 |                                                 |
 |     "First principles methods using CASTEP"     |
 |                                                 |
 |         Zeitschrift fuer Kristallographie       |
 |           220(5-6) pp. 567-570 (2005)           |
 |                                                 |
 | S. J. Clark, M. D. Segall, C. J. Pickard,       |
 | P. J. Hasnip, M. J. Probert, K. Refson,         |
 | M. C. Payne                                     |
 |                                                 |
 |       in all publications arising from          |
 |              your use of CASTEP                 |
 |                                                 |
 +-------------------------------------------------+


 Compiled for linux_x86_64_gfortran6.0-XT on Fri, 21 Jul 2017 10:20:05 +0100
 from code version 056e886bd5a1+ Castep172_branch Mon, 15 May 2017 14:45:35 +0100
 Compiler: GNU Fortran 6.3.0; Optimisation: fast
 MATHLIBS: Intel MKL(2017.0.0) (LAPACK version 3.6.0)
 FFT Lib : fftw3 version commercial-fftw-3.3.4-sse2-avx
 Fundamental constants values: CODATA 2010

 Run started: Sun, 17 Nov 2019 20:56:44 +0000

 Atomic calculation performed for O: 1s2 2s2 2p4

 Converged in 60 iterations to an ae energy of -2027.926 eV

   ============================================================                
   | Pseudopotential Report - Date of generation 17-11-2019   |                
   ------------------------------------------------------------                
   | Element: O Ionic charge:  6.00 Level of theory: LDA      |                
   | Atomic Solver: Koelling-Harmon                           |                
   |                                                          |                
   |               Reference Electronic Structure             |                
   |         Orbital         Occupation         Energy        |                
   |            2s              2.000           -0.873        |                
   |            2p              4.000           -0.338        |                
   |                                                          |                
   |                 Pseudopotential Definition               |                
   |        Beta     l      e      Rc     scheme   norm       |                
   |          1      0   -0.873   1.100     qc      0         |                
   |          2      0    0.250   1.100     qc      0         |                
   |          3      1   -0.338   1.100     qc      0         |                
   |          4      1    0.250   1.100     qc      0         |                
   |         loc     2    0.000   1.100     pn      0         |                
   |                                                          |                
   | Augmentation charge Rinner = 0.769                       |                
   | Partial core correction Rc = 0.769                       |                
   ------------------------------------------------------------                
   | "2|1.1|15|18|20|20:21(qc=7)"                             |                
   ------------------------------------------------------------                
   |      Author: Chris J. Pickard, Cambridge University      |                
   ============================================================                

 Atomic calculation performed for Ni: 1s2 2s2 2p6 3s2 3p6 3d8 4s2

 Converged in 111 iterations to an ae energy of -41308.385 eV

   ============================================================                
   | Pseudopotential Report - Date of generation 17-11-2019   |                
   ------------------------------------------------------------                
   | Element: Ni Ionic charge: 10.00 Level of theory: LDA     |                
   | Atomic Solver: Koelling-Harmon                           |                
   |                                                          |                
   |               Reference Electronic Structure             |                
   |         Orbital         Occupation         Energy        |                
   |            3d              8.000           -0.336        |                
   |            4s              2.000           -0.216        |                
   |                                                          |                
   |                 Pseudopotential Definition               |                
   |        Beta     l      e      Rc     scheme   norm       |                
   |          1      0   -0.216   2.401     qc      0         |                
   |          2      0    0.250   2.401     qc      0         |                
   |          3      1    0.000   2.401     qc      0         |                
   |          4      1    0.250   2.401     qc      0         |                
   |          5      2   -0.336   1.999     qc      0         |                
   |          6      2    0.250   1.999     qc      0         |                
   |         loc     3    0.000   2.401     pn      0         |                
   |                                                          |                
   | Augmentation charge Rinner = 1.001                       |                
   | Partial core correction Rc = 1.001                       |                
   ------------------------------------------------------------                
   | "3|2.4|2.4|1.0|8|9|10|40:41:32U2U2(qc=5.5)"              |                
   ------------------------------------------------------------                
   |      Author: Chris J. Pickard, Cambridge University      |                
   ============================================================                

 Pseudo atomic calculation performed for O 2s2 2p4

 Converged in 24 iterations to a total energy of -431.4956 eV


 Pseudo atomic calculation performed for Ni 3d8 4s2

 Converged in 39 iterations to a total energy of -1362.4764 eV

 Calculation parallelised over 48 processes.
 Data is distributed by k-point(48-way)

 ************************************ Title ************************************
 

 ***************************** General Parameters ******************************
  
 output verbosity                               : normal  (1)
 write checkpoint data to                       : castep.check
 type of calculation                            : single point energy
 stress calculation                             : on
 density difference calculation                 : off
 electron localisation func (ELF) calculation   : off
 Hirshfeld analysis                             : off
 unlimited duration calculation
 timing information                             : on
 memory usage estimate                          : on
 write final potential to formatted file        : off
 write final density to formatted file          : off
 write BibTeX reference list                    : on
 write OTFG pseudopotential files               : on
 write electrostatic potential file             : on
 write bands file                               : on
 checkpoint writing                             : off
  
 output         length unit                     : A
 output           mass unit                     : amu
 output           time unit                     : ps
 output         charge unit                     : e
 output           spin unit                     : hbar/2
 output         energy unit                     : eV
 output          force unit                     : eV/A
 output       velocity unit                     : A/ps
 output       pressure unit                     : GPa
 output     inv_length unit                     : 1/A
 output      frequency unit                     : cm-1
 output force constant unit                     : eV/A**2
 output         volume unit                     : A**3
 output   IR intensity unit                     : (D/A)**2/amu
 output         dipole unit                     : D
 output         efield unit                     : eV/A/e
 output        entropy unit                     : J/mol/K
  
 wavefunctions paging                           : none
 random number generator seed                   : randomised (205645785)
 data distribution                              : optimal for this architecture
 optimization strategy                          : balance speed and memory

 *********************** Exchange-Correlation Parameters ***********************
  
 using functional                               : Local Density Approximation
 relativistic treatment                         : Koelling-Harmon
 DFT+D: Semi-empirical dispersion correction    : off

 ************************* Pseudopotential Parameters **************************
  
 pseudopotential representation                 : reciprocal space
 <beta|phi> representation                      : reciprocal space
 spin-orbit coupling                            : off

 **************************** Basis Set Parameters *****************************
  
 plane wave basis set cut-off                   :   500.0000   eV
 size of standard grid                          :     1.7500
 size of   fine   gmax                          :    20.0476   1/A
 finite basis set correction                    : automatic
 number of sample energies                      :          3
           sample  spacing                      :     5.0000   eV

 **************************** Electronic Parameters ****************************
  
 number of  electrons                           :  64.00    
 net charge of system                           :  0.000    
 treating system as non-spin-polarized
 number of bands                                :         38

 ********************* Electronic Minimization Parameters **********************
  
 Method: Treating system as metallic with density mixing treatment of electrons,
         and number of  SD  steps               :          1
         and number of  CG  steps               :          4
  
 total energy / atom convergence tol.           : 0.1000E-04   eV
 eigen-energy convergence tolerance             : 0.1000E-05   eV
 max force / atom convergence tol.              : ignored
 convergence tolerance window                   :          3   cycles
 max. number of SCF cycles                      :        250
 number of fixed-spin iterations                :         10
 smearing scheme                                : Gaussian
 smearing width                                 : 0.1000       eV
 Fermi energy convergence tolerance             : 0.2721E-13   eV
 periodic dipole correction                     : NONE

 ************************** Density Mixing Parameters **************************
  
 density-mixing scheme                          : Pulay
 max. length of mixing history                  :         20
 charge density mixing amplitude                : 0.8000    
 cut-off energy for mixing                      :  500.0       eV

 *********************** Population Analysis Parameters ************************
  
 Population analysis with cutoff                :  3.000       A

 *******************************************************************************
  

                           -------------------------------
                                      Unit Cell
                           -------------------------------
        Real Lattice(A)                      Reciprocal Lattice(1/A)
   4.1770000   0.0000000   0.0000000        1.5042340   0.0000000   0.0000000
   0.0000000   4.1770000   0.0000000        0.0000000   1.5042340   0.0000000
   0.0000000   0.0000000   4.1770000        0.0000000   0.0000000   1.5042340

                       Lattice parameters(A)       Cell Angles
                    a =    4.177000          alpha =   90.000000
                    b =    4.177000          beta  =   90.000000
                    c =    4.177000          gamma =   90.000000

                       Current cell volume =   72.877493       A**3
                                   density =    4.099636   AMU/A**3
                                           =    6.807605     g/cm^3

                           -------------------------------
                                     Cell Contents
                           -------------------------------
                         Total number of ions in cell =    8
                      Total number of species in cell =    2
                        Max number of any one species =    4

            xxxxxxxxxxxxxxxxxxxxxxxxxxxxxxxxxxxxxxxxxxxxxxxxxxxxxxxxxxxx
            x  Element    Atom        Fractional coordinates of atoms  x
            x            Number           u          v          w      x
            x----------------------------------------------------------x
            x  O            1         0.000000   0.000000   0.500000   x 
            x  O            2         0.000000   0.500000   0.000000   x 
            x  O            3         0.500000   0.000000   0.000000   x 
            x  O            4         0.500000   0.500000   0.500000   x 
            x  Ni           1         0.000000   0.000000   0.000000   x 
            x  Ni           2         0.000000   0.500000   0.500000   x 
            x  Ni           3         0.500000   0.000000   0.500000   x 
            x  Ni           4         0.500000   0.500000   0.000000   x 
            xxxxxxxxxxxxxxxxxxxxxxxxxxxxxxxxxxxxxxxxxxxxxxxxxxxxxxxxxxxx


                         No user defined ionic velocities

                           -------------------------------
                                   Details of Species
                           -------------------------------

                               Mass of species in AMU
                                    O   15.9994000
                                    Ni   58.6934000

                          Electric Quadrupole Moment (Barn)
                                    O   -0.0255800 Isotope 17
                                    Ni    0.1620000 Isotope 61

                          Files used for pseudopotentials:
                                    O 2|1.1|15|18|20|20:21(qc=7)
                                    Ni 3|2.4|2.4|1.0|8|9|10|40:41:32U2U2(qc=5.5)

                           -------------------------------
                              k-Points For BZ Sampling
                           -------------------------------
                       MP grid size for SCF calculation is  8  8  8
                            with an offset of   0.000  0.000  0.000
                       Number of kpoints used =           256

                           -------------------------------
                               Symmetry and Constraints
                           -------------------------------

                      Cell is a supercell containing 4 primitive cells
                      Maximum deviation from symmetry =  0.00000         ANG

                      Number of symmetry operations   =           1
                      Number of ionic constraints     =           3
                      Point group of crystal =     1: C1, 1, 1
                      Space group of crystal =   225: Fm-3m, -F 4 2 3

             Set iprint > 1 for details on symmetry rotations/translations

                         Centre of mass is constrained
             Set iprint > 1 for details of linear ionic constraints

                         Number of cell constraints= 0
                         Cell constraints are:  1 2 3 4 5 6

                         External pressure/stress (GPa)
                          0.00000   0.00000   0.00000
                                    0.00000   0.00000
                                              0.00000
  
+---------------- MEMORY AND SCRATCH DISK ESTIMATES PER PROCESS --------------+
|                                                     Memory          Disk    |
| Baseline code, static data and system overhead      172.0 MB         0.0 MB |
| BLAS internal memory storage                          0.0 MB         0.0 MB |
| Model and support data                               44.1 MB        31.1 MB |
| Electronic energy minimisation requirements          24.3 MB         0.0 MB |
| Force calculation requirements                        2.9 MB         0.0 MB |
| Stress calculation requirements                       3.2 MB         0.0 MB |
|                                               ----------------------------- |
| Approx. total storage required per process          240.3 MB        31.1 MB |
|                                                                             |
| Requirements will fluctuate during execution and may exceed these estimates |
+-----------------------------------------------------------------------------+
Calculating finite basis set correction with  3 cut-off energies.
Calculating total energy with cut-off of  490.000 eV.
------------------------------------------------------------------------ <-- SCF
SCF loop      Energy           Fermi           Energy gain       Timer   <-- SCF
                               energy          per atom          (sec)   <-- SCF
------------------------------------------------------------------------ <-- SCF
Initial  -6.18280962E+003  0.00000000E+000                        12.34  <-- SCF
      1  -7.06422419E+003  6.92278894E+000   1.10176822E+002      14.19  <-- SCF
      2  -7.23028012E+003  3.69096268E+000   2.07569907E+001      15.83  <-- SCF
      3  -7.23807730E+003  3.94074709E+000   9.74646929E-001      17.27  <-- SCF
      4  -7.23698126E+003  5.53611651E+000  -1.37004256E-001      18.92  <-- SCF
      5  -7.23642674E+003  5.11423204E+000  -6.93144981E-002      20.67  <-- SCF
      6  -7.23672532E+003  4.96003134E+000   3.73221228E-002      22.48  <-- SCF
      7  -7.23634978E+003  4.83856229E+000  -4.69430340E-002      24.15  <-- SCF
      8  -7.23653175E+003  4.94630276E+000   2.27469970E-002      25.84  <-- SCF
      9  -7.23629734E+003  5.01151275E+000  -2.93021707E-002      27.52  <-- SCF
     10  -7.23630842E+003  5.01246089E+000   1.38589642E-003      29.19  <-- SCF
     11  -7.23630837E+003  5.01263927E+000  -6.89474017E-006      30.54  <-- SCF
     12  -7.23630811E+003  5.01307363E+000  -3.22845563E-005      31.75  <-- SCF
     13  -7.23630805E+003  5.01288055E+000  -7.21225614E-006      32.84  <-- SCF
     14  -7.23630806E+003  5.01274521E+000   9.84069722E-007      33.92  <-- SCF
------------------------------------------------------------------------ <-- SCF
 
Final energy, E             =  -7236.249965868     eV
Final free energy (E-TS)    =  -7236.308060226     eV
(energies not corrected for finite basis set)
 
NB est. 0K energy (E-0.5TS)      =  -7236.279013047     eV
 
Calculating total energy with cut-off of  495.000 eV.
------------------------------------------------------------------------ <-- SCF
SCF loop      Energy           Fermi           Energy gain       Timer   <-- SCF
                               energy          per atom          (sec)   <-- SCF
------------------------------------------------------------------------ <-- SCF
Initial  -7.23624989E+003  0.00000000E+000                        34.40  <-- SCF
      1  -7.23642973E+003  5.01093141E+000   2.24800066E-002      35.98  <-- SCF
      2  -7.23642977E+003  5.01093255E+000   4.90853772E-006      41.62  <-- SCF
      3  -7.23716746E+003  5.04028864E+000   9.22106419E-002      43.32  <-- SCF
      4  -7.23639884E+003  4.99921025E+000  -9.60776131E-002      45.02  <-- SCF
      5  -7.23642695E+003  5.00347842E+000   3.51384165E-003      46.70  <-- SCF
      6  -7.23642718E+003  5.01466410E+000   2.96745025E-005      48.37  <-- SCF
      7  -7.23642715E+003  5.01152759E+000  -4.18243359E-006      49.51  <-- SCF
      8  -7.23642717E+003  5.01256256E+000   2.55425963E-006      50.62  <-- SCF
------------------------------------------------------------------------ <-- SCF
 
Final energy, E             =  -7236.369117657     eV
Final free energy (E-TS)    =  -7236.427170109     eV
(energies not corrected for finite basis set)
 
NB est. 0K energy (E-0.5TS)      =  -7236.398143883     eV
 
Calculating total energy with cut-off of  500.000 eV.
------------------------------------------------------------------------ <-- SCF
SCF loop      Energy           Fermi           Energy gain       Timer   <-- SCF
                               energy          per atom          (sec)   <-- SCF
------------------------------------------------------------------------ <-- SCF
Initial  -7.23636842E+003  0.00000000E+000                        51.08  <-- SCF
      1  -7.23654969E+003  5.00688299E+000   2.26583846E-002      52.68  <-- SCF
      2  -7.23654973E+003  5.00688410E+000   5.13410004E-006      53.99  <-- SCF
      3  -7.24359698E+003  5.80317553E+000   8.80906542E-001      55.70  <-- SCF
      4  -7.23704152E+003  5.01043914E+000  -8.19432334E-001      57.43  <-- SCF
      5  -7.23650444E+003  4.96728053E+000  -6.71353163E-002      59.14  <-- SCF
      6  -7.23653503E+003  5.01137759E+000   3.82420218E-003      60.84  <-- SCF
      7  -7.23652856E+003  5.01685762E+000  -8.09296072E-004      62.52  <-- SCF
      8  -7.23652707E+003  5.00707140E+000  -1.86144318E-004      64.19  <-- SCF
      9  -7.23652703E+003  5.00924687E+000  -4.95058967E-006      65.32  <-- SCF
     10  -7.23652685E+003  5.00980270E+000  -2.22090567E-005      66.46  <-- SCF
     11  -7.23652660E+003  5.01058721E+000  -3.19005532E-005      67.61  <-- SCF
     12  -7.23652659E+003  5.01097915E+000  -8.82923117E-007      68.72  <-- SCF
     13  -7.23652659E+003  5.01128294E+000  -3.60853690E-007      69.81  <-- SCF
------------------------------------------------------------------------ <-- SCF
 
Final energy, E             =  -7236.468589660     eV
Final free energy (E-TS)    =  -7236.526587749     eV
(energies not corrected for finite basis set)
 
NB est. 0K energy (E-0.5TS)      =  -7236.497588705     eV
 
 For future reference: finite basis dEtot/dlog(Ecut) =     -10.807932eV
 Total energy corrected for finite basis set =   -7236.525690 eV

 ******************* Unconstrained Forces *******************
 *                                                          *
 *               Cartesian components (eV/A)                *
 * -------------------------------------------------------- *
 *                         x            y            z      *
 *                                                          *
 * O               1      0.00000      0.00000     -0.00000 *
 * O               2      0.00000     -0.00000     -0.00000 *
 * O               3      0.00000     -0.00000     -0.00000 *
 * O               4      0.00000      0.00000      0.00000 *
 * Ni              1     -0.00001     -0.00000     -0.00000 *
 * Ni              2      0.00000     -0.00000      0.00000 *
 * Ni              3     -0.00000      0.00000     -0.00000 *
 * Ni              4     -0.00000     -0.00000      0.00000 *
 *                                                          *
 ************************************************************

 ******************** Constrained Forces ********************
 *                                                          *
 *               Cartesian components (eV/A)                *
 * -------------------------------------------------------- *
 *                         x            y            z      *
 *                                                          *
 * O               1      0.00000      0.00000     -0.00000 *
 * O               2      0.00000     -0.00000     -0.00000 *
 * O               3      0.00000     -0.00000     -0.00000 *
 * O               4      0.00000      0.00000      0.00000 *
 * Ni              1     -0.00001     -0.00000     -0.00000 *
 * Ni              2      0.00000     -0.00000      0.00000 *
 * Ni              3     -0.00000      0.00000     -0.00000 *
 * Ni              4     -0.00000     -0.00000      0.00000 *
 *                                                          *
 ************************************************************

 ***************** Stress Tensor *****************
 *                                               *
 *          Cartesian components (GPa)           *
 * --------------------------------------------- *
 *             x             y             z     *
 *                                               *
 *  x     17.332995      0.000002     -0.000004  *
 *  y      0.000002     17.332014      0.000002  *
 *  z     -0.000004      0.000002     17.329637  *
 *                                               *
 *  Pressure:  -17.3315                          *
 *                                               *
 *************************************************

 Pseudo atomic calculation performed for O 2s2 2p4

 Converged in 24 iterations to a total energy of -431.4956 eV


 Pseudo atomic calculation performed for Ni 3d8 4s2

 Converged in 39 iterations to a total energy of -1362.4764 eV

Charge spilling parameter for spin component 1 = 0.19%

     Atomic Populations (Mulliken)
     -----------------------------
Species          Ion     s      p      d      f     Total  Charge (e)
=====================================================================
  O               1     1.88   4.73   0.00   0.00   6.60    -0.60
  O               2     1.88   4.73   0.00   0.00   6.60    -0.60
  O               3     1.88   4.73   0.00   0.00   6.60    -0.60
  O               4     1.88   4.73   0.00   0.00   6.60    -0.60
  Ni              1     0.35   0.46   8.59   0.00   9.40     0.60
  Ni              2     0.35   0.46   8.59   0.00   9.40     0.60
  Ni              3     0.35   0.46   8.59   0.00   9.40     0.60
  Ni              4     0.35   0.46   8.59   0.00   9.40     0.60
=====================================================================

                 Bond                   Population      Length (A)
======================================================================
               O 4 -- Ni 4                   0.42        2.08850
               O 4 -- Ni 3                   0.42        2.08850
               O 4 -- Ni 2                   0.42        2.08850
               O 3 -- Ni 4                   0.42        2.08850
               O 3 -- Ni 3                   0.42        2.08850
               O 3 -- Ni 1                   0.42        2.08850
               O 2 -- Ni 4                   0.42        2.08850
               O 2 -- Ni 2                   0.42        2.08850
               O 2 -- Ni 1                   0.42        2.08850
               O 1 -- Ni 3                   0.42        2.08850
               O 1 -- Ni 2                   0.42        2.08850
               O 1 -- Ni 1                   0.42        2.08850
              Ni 3 -- Ni 4                  -0.12        2.95359
              Ni 2 -- Ni 4                  -0.12        2.95359
              Ni 2 -- Ni 3                  -0.12        2.95359
              Ni 1 -- Ni 4                  -0.12        2.95359
              Ni 1 -- Ni 3                  -0.12        2.95359
              Ni 1 -- Ni 2                  -0.12        2.95359
               O 3 -- O 4                   -0.07        2.95359
               O 2 -- O 4                   -0.07        2.95359
               O 2 -- O 3                   -0.07        2.95359
               O 1 -- O 4                   -0.07        2.95359
               O 1 -- O 3                   -0.07        2.95359
               O 1 -- O 2                   -0.07        2.95359
======================================================================

 
 A BibTeX formatted list of references used in this run has been written to 
 castep.bib
 
Initialisation time =     10.33 s
Calculation time    =     71.10 s
Finalisation time   =      0.02 s
Total time          =     81.46 s
Peak Memory Use     = 657188 kB
  
Overall parallel efficiency rating: Very good (86%)                             
  
Data was distributed by:-
k-point (48-way); efficiency rating: Very good (87%)                            
  
Parallel notes:
1) Calculation only took 81.5 s, so efficiency estimates may be inaccurate.     
 +-------------------------------------------------+
 |                                                 |
 |      CCC   AA    SSS  TTTTT  EEEEE  PPPP        |
 |     C     A  A  S       T    E      P   P       |
 |     C     AAAA   SS     T    EEE    PPPP        |
 |     C     A  A     S    T    E      P           |
 |      CCC  A  A  SSS     T    EEEEE  P           |
 |                                                 |
 +-------------------------------------------------+
 |                                                 |
 | Welcome to Academic Release CASTEP version 17.21|          
 | Ab Initio Total Energy Program                  |
 |                                                 |
 | Authors:                                        |
 | M. Segall, M. Probert, C. Pickard, P. Hasnip,   |
 | S. Clark, K. Refson, J. R. Yates, M. Payne      |
 |                                                 |
 | Contributors:                                   |
 | P. Lindan, P. Haynes, J. White, V. Milman,      |
 | N. Govind, M. Gibson, P. Tulip, V. Cocula,      |
 | B. Montanari, D. Quigley, M. Glover,            |
 | L. Bernasconi, A. Perlov, M. Plummer,           |
 | E. McNellis, J. Meyer, J. Gale, D. Jochym       |
 | J. Aarons, B. Walker, R. Gillen, D. Jones       |
 | T. Green, I. J. Bush, C. J. Armstrong,          |
 | E. J. Higgins, E. L. Brown, M. S. McFly,        |
 | J. Wilkins, B-C. Shih, P. J. P. Byrne           |
 |                                                 |
 | Copyright (c) 2000 - 2017                       |
 |                                                 |
 |     Distributed under the terms of an           |
 |     Agreement between the United Kingdom        |
 |     Car-Parrinello (UKCP) Consortium,           |
 |     Daresbury Laboratory and Accelrys, Inc.     |
 |                                                 |
 | Please cite                                     |
 |                                                 |
 |     "First principles methods using CASTEP"     |
 |                                                 |
 |         Zeitschrift fuer Kristallographie       |
 |           220(5-6) pp. 567-570 (2005)           |
 |                                                 |
 | S. J. Clark, M. D. Segall, C. J. Pickard,       |
 | P. J. Hasnip, M. J. Probert, K. Refson,         |
 | M. C. Payne                                     |
 |                                                 |
 |       in all publications arising from          |
 |              your use of CASTEP                 |
 |                                                 |
 +-------------------------------------------------+


 Compiled for linux_x86_64_gfortran6.0-XT on Fri, 21 Jul 2017 10:20:05 +0100
 from code version 056e886bd5a1+ Castep172_branch Mon, 15 May 2017 14:45:35 +0100
 Compiler: GNU Fortran 6.3.0; Optimisation: fast
 MATHLIBS: Intel MKL(2017.0.0) (LAPACK version 3.6.0)
 FFT Lib : fftw3 version commercial-fftw-3.3.4-sse2-avx
 Fundamental constants values: CODATA 2010

 Run started: Sun, 17 Nov 2019 20:58:15 +0000

 Atomic calculation performed for O: 1s2 2s2 2p4

 Converged in 60 iterations to an ae energy of -2027.926 eV

   ============================================================                
   | Pseudopotential Report - Date of generation 17-11-2019   |                
   ------------------------------------------------------------                
   | Element: O Ionic charge:  6.00 Level of theory: LDA      |                
   | Atomic Solver: Koelling-Harmon                           |                
   |                                                          |                
   |               Reference Electronic Structure             |                
   |         Orbital         Occupation         Energy        |                
   |            2s              2.000           -0.873        |                
   |            2p              4.000           -0.338        |                
   |                                                          |                
   |                 Pseudopotential Definition               |                
   |        Beta     l      e      Rc     scheme   norm       |                
   |          1      0   -0.873   1.100     qc      0         |                
   |          2      0    0.250   1.100     qc      0         |                
   |          3      1   -0.338   1.100     qc      0         |                
   |          4      1    0.250   1.100     qc      0         |                
   |         loc     2    0.000   1.100     pn      0         |                
   |                                                          |                
   | Augmentation charge Rinner = 0.769                       |                
   | Partial core correction Rc = 0.769                       |                
   ------------------------------------------------------------                
   | "2|1.1|15|18|20|20:21(qc=7)"                             |                
   ------------------------------------------------------------                
   |      Author: Chris J. Pickard, Cambridge University      |                
   ============================================================                

 Atomic calculation performed for Ni: 1s2 2s2 2p6 3s2 3p6 3d8 4s2

 Converged in 111 iterations to an ae energy of -41308.385 eV

   ============================================================                
   | Pseudopotential Report - Date of generation 17-11-2019   |                
   ------------------------------------------------------------                
   | Element: Ni Ionic charge: 10.00 Level of theory: LDA     |                
   | Atomic Solver: Koelling-Harmon                           |                
   |                                                          |                
   |               Reference Electronic Structure             |                
   |         Orbital         Occupation         Energy        |                
   |            3d              8.000           -0.336        |                
   |            4s              2.000           -0.216        |                
   |                                                          |                
   |                 Pseudopotential Definition               |                
   |        Beta     l      e      Rc     scheme   norm       |                
   |          1      0   -0.216   2.401     qc      0         |                
   |          2      0    0.250   2.401     qc      0         |                
   |          3      1    0.000   2.401     qc      0         |                
   |          4      1    0.250   2.401     qc      0         |                
   |          5      2   -0.336   1.999     qc      0         |                
   |          6      2    0.250   1.999     qc      0         |                
   |         loc     3    0.000   2.401     pn      0         |                
   |                                                          |                
   | Augmentation charge Rinner = 1.001                       |                
   | Partial core correction Rc = 1.001                       |                
   ------------------------------------------------------------                
   | "3|2.4|2.4|1.0|8|9|10|40:41:32U2U2(qc=5.5)"              |                
   ------------------------------------------------------------                
   |      Author: Chris J. Pickard, Cambridge University      |                
   ============================================================                

 Pseudo atomic calculation performed for O 2s2 2p4

 Converged in 24 iterations to a total energy of -431.4956 eV


 Pseudo atomic calculation performed for Ni 3d8 4s2

 Converged in 39 iterations to a total energy of -1362.4764 eV

 Calculation parallelised over 48 processes.
 Data is distributed by k-point(48-way)

 ************************************ Title ************************************
 

 ***************************** General Parameters ******************************
  
 output verbosity                               : normal  (1)
 write checkpoint data to                       : castep.check
 type of calculation                            : single point energy
 stress calculation                             : on
 density difference calculation                 : off
 electron localisation func (ELF) calculation   : off
 Hirshfeld analysis                             : off
 unlimited duration calculation
 timing information                             : on
 memory usage estimate                          : on
 write final potential to formatted file        : off
 write final density to formatted file          : off
 write BibTeX reference list                    : on
 write OTFG pseudopotential files               : on
 write electrostatic potential file             : on
 write bands file                               : on
 checkpoint writing                             : off
  
 output         length unit                     : A
 output           mass unit                     : amu
 output           time unit                     : ps
 output         charge unit                     : e
 output           spin unit                     : hbar/2
 output         energy unit                     : eV
 output          force unit                     : eV/A
 output       velocity unit                     : A/ps
 output       pressure unit                     : GPa
 output     inv_length unit                     : 1/A
 output      frequency unit                     : cm-1
 output force constant unit                     : eV/A**2
 output         volume unit                     : A**3
 output   IR intensity unit                     : (D/A)**2/amu
 output         dipole unit                     : D
 output         efield unit                     : eV/A/e
 output        entropy unit                     : J/mol/K
  
 wavefunctions paging                           : none
 random number generator seed                   : randomised (205818202)
 data distribution                              : optimal for this architecture
 optimization strategy                          : maximize speed(+++)

 *********************** Exchange-Correlation Parameters ***********************
  
 using functional                               : Local Density Approximation
 relativistic treatment                         : Koelling-Harmon
 DFT+D: Semi-empirical dispersion correction    : off

 ************************* Pseudopotential Parameters **************************
  
 pseudopotential representation                 : reciprocal space
 <beta|phi> representation                      : reciprocal space
 spin-orbit coupling                            : off

 **************************** Basis Set Parameters *****************************
  
 plane wave basis set cut-off                   :   500.0000   eV
 size of standard grid                          :     1.7500
 size of   fine   gmax                          :    20.0476   1/A
 finite basis set correction                    : automatic
 number of sample energies                      :          3
           sample  spacing                      :     5.0000   eV

 **************************** Electronic Parameters ****************************
  
 number of  electrons                           :  64.00    
 net charge of system                           :  0.000    
 treating system as non-spin-polarized
 number of bands                                :         38

 ********************* Electronic Minimization Parameters **********************
  
 Method: Treating system as metallic with density mixing treatment of electrons,
         and number of  SD  steps               :          1
         and number of  CG  steps               :          4
  
 total energy / atom convergence tol.           : 0.1000E-04   eV
 eigen-energy convergence tolerance             : 0.1000E-05   eV
 max force / atom convergence tol.              : ignored
 convergence tolerance window                   :          3   cycles
 max. number of SCF cycles                      :        250
 number of fixed-spin iterations                :         10
 smearing scheme                                : Gaussian
 smearing width                                 : 0.1000       eV
 Fermi energy convergence tolerance             : 0.2721E-13   eV
 periodic dipole correction                     : NONE

 ************************** Density Mixing Parameters **************************
  
 density-mixing scheme                          : Pulay
 max. length of mixing history                  :         20
 charge density mixing amplitude                : 0.8000    
 cut-off energy for mixing                      :  500.0       eV

 *********************** Population Analysis Parameters ************************
  
 Population analysis with cutoff                :  3.000       A

 *******************************************************************************
  

                           -------------------------------
                                      Unit Cell
                           -------------------------------
        Real Lattice(A)                      Reciprocal Lattice(1/A)
   4.2189800   0.0000000   0.0000000        1.4892664   0.0000000   0.0000000
   0.0000000   4.2189800   0.0000000        0.0000000   1.4892664   0.0000000
   0.0000000   0.0000000   4.2189800        0.0000000   0.0000000   1.4892664

                       Lattice parameters(A)       Cell Angles
                    a =    4.218980          alpha =   90.000000
                    b =    4.218980          beta  =   90.000000
                    c =    4.218980          gamma =   90.000000

                       Current cell volume =   75.096967       A**3
                                   density =    3.978472   AMU/A**3
                                           =    6.606408     g/cm^3

                           -------------------------------
                                     Cell Contents
                           -------------------------------
                         Total number of ions in cell =    8
                      Total number of species in cell =    2
                        Max number of any one species =    4

            xxxxxxxxxxxxxxxxxxxxxxxxxxxxxxxxxxxxxxxxxxxxxxxxxxxxxxxxxxxx
            x  Element    Atom        Fractional coordinates of atoms  x
            x            Number           u          v          w      x
            x----------------------------------------------------------x
            x  O            1         0.000000   0.000000   0.504207   x 
            x  O            2         0.000000   0.504207   0.000000   x 
            x  O            3         0.504207   0.000000   0.000000   x 
            x  O            4         0.504207   0.504207   0.504207   x 
            x  Ni           1         0.000000   0.000000   0.000000   x 
            x  Ni           2         0.000000   0.504207   0.504207   x 
            x  Ni           3         0.504207   0.000000   0.504207   x 
            x  Ni           4         0.504207   0.504207   0.000000   x 
            xxxxxxxxxxxxxxxxxxxxxxxxxxxxxxxxxxxxxxxxxxxxxxxxxxxxxxxxxxxx


                         No user defined ionic velocities

                           -------------------------------
                                   Details of Species
                           -------------------------------

                               Mass of species in AMU
                                    O   15.9994000
                                    Ni   58.6934000

                          Electric Quadrupole Moment (Barn)
                                    O   -0.0255800 Isotope 17
                                    Ni    0.1620000 Isotope 61

                          Files used for pseudopotentials:
                                    O 2|1.1|15|18|20|20:21(qc=7)
                                    Ni 3|2.4|2.4|1.0|8|9|10|40:41:32U2U2(qc=5.5)

                           -------------------------------
                              k-Points For BZ Sampling
                           -------------------------------
                       MP grid size for SCF calculation is  8  8  8
                            with an offset of   0.000  0.000  0.000
                       Number of kpoints used =           256

                           -------------------------------
                               Symmetry and Constraints
                           -------------------------------

                      Maximum deviation from symmetry =  0.00000         ANG

                      Number of symmetry operations   =           1
                      Number of ionic constraints     =           3
                      Point group of crystal =     1: C1, 1, 1
                      Space group of crystal =   215: P-43m, P -4 2 3

             Set iprint > 1 for details on symmetry rotations/translations

                         Centre of mass is constrained
             Set iprint > 1 for details of linear ionic constraints

                         Number of cell constraints= 0
                         Cell constraints are:  1 2 3 4 5 6

                         External pressure/stress (GPa)
                          0.00000   0.00000   0.00000
                                    0.00000   0.00000
                                              0.00000
  
+---------------- MEMORY AND SCRATCH DISK ESTIMATES PER PROCESS --------------+
|                                                     Memory          Disk    |
| Baseline code, static data and system overhead      172.0 MB         0.0 MB |
| BLAS internal memory storage                          0.0 MB         0.0 MB |
| Model and support data                               75.4 MB         0.0 MB |
| Electronic energy minimisation requirements          24.9 MB         0.0 MB |
| Force calculation requirements                        2.9 MB         0.0 MB |
| Stress calculation requirements                       3.2 MB         0.0 MB |
|                                               ----------------------------- |
| Approx. total storage required per process          272.2 MB         0.0 MB |
|                                                                             |
| Requirements will fluctuate during execution and may exceed these estimates |
+-----------------------------------------------------------------------------+
Calculating finite basis set correction with  3 cut-off energies.
Calculating total energy with cut-off of  490.000 eV.
------------------------------------------------------------------------ <-- SCF
SCF loop      Energy           Fermi           Energy gain       Timer   <-- SCF
                               energy          per atom          (sec)   <-- SCF
------------------------------------------------------------------------ <-- SCF
Initial  -6.18158272E+003  0.00000000E+000                        13.52  <-- SCF
      1  -7.06295624E+003  6.50812720E+000   1.10171690E+002      16.25  <-- SCF
      2  -7.22977538E+003  3.33151752E+000   2.08523926E+001      17.86  <-- SCF
      3  -7.23776846E+003  3.56646301E+000   9.99134650E-001      19.27  <-- SCF
      4  -7.23670947E+003  5.17375659E+000  -1.32373505E-001      20.95  <-- SCF
      5  -7.23612190E+003  4.73653800E+000  -7.34461056E-002      22.68  <-- SCF
      6  -7.23644726E+003  4.52671996E+000   4.06688293E-002      24.46  <-- SCF
      7  -7.23605625E+003  4.45407937E+000  -4.88753933E-002      26.17  <-- SCF
      8  -7.23606307E+003  4.61946175E+000   8.52298607E-004      27.89  <-- SCF
      9  -7.23601059E+003  4.63610547E+000  -6.56003328E-003      29.60  <-- SCF
     10  -7.23601477E+003  4.63647782E+000   5.21924782E-004      31.31  <-- SCF
     11  -7.23601341E+003  4.63715918E+000  -1.69155649E-004      32.85  <-- SCF
     12  -7.23601340E+003  4.63731005E+000  -1.46043078E-006      34.10  <-- SCF
     13  -7.23601339E+003  4.63706646E+000  -9.81713963E-007      35.22  <-- SCF
------------------------------------------------------------------------ <-- SCF
 
Final energy, E             =  -7235.955240594     eV
Final free energy (E-TS)    =  -7236.013392724     eV
(energies not corrected for finite basis set)
 
NB est. 0K energy (E-0.5TS)      =  -7235.984316659     eV
 
Calculating total energy with cut-off of  495.000 eV.
------------------------------------------------------------------------ <-- SCF
SCF loop      Energy           Fermi           Energy gain       Timer   <-- SCF
                               energy          per atom          (sec)   <-- SCF
------------------------------------------------------------------------ <-- SCF
Initial  -7.23595521E+003  0.00000000E+000                        35.70  <-- SCF
      1  -7.23612357E+003  4.63457356E+000   2.10442656E-002      37.29  <-- SCF
      2  -7.23612360E+003  4.63457604E+000   4.20557529E-006      38.51  <-- SCF
      3  -7.23642955E+003  4.62565389E+000   3.82440819E-002      40.25  <-- SCF
      4  -7.23610360E+003  4.63010334E+000  -4.07436279E-002      41.97  <-- SCF
      5  -7.23612293E+003  4.63234877E+000   2.41630214E-003      43.68  <-- SCF
      6  -7.23612259E+003  4.63819412E+000  -4.31277542E-005      45.30  <-- SCF
      7  -7.23612270E+003  4.63653443E+000   1.42105114E-005      46.45  <-- SCF
      8  -7.23612256E+003  4.63522393E+000  -1.72086198E-005      47.60  <-- SCF
      9  -7.23612257E+003  4.63602732E+000   9.74621359E-007      48.70  <-- SCF
     10  -7.23612257E+003  4.63602690E+000  -8.33185177E-008      49.82  <-- SCF
------------------------------------------------------------------------ <-- SCF
 
Final energy, E             =  -7236.064252453     eV
Final free energy (E-TS)    =  -7236.122571520     eV
(energies not corrected for finite basis set)
 
NB est. 0K energy (E-0.5TS)      =  -7236.093411986     eV
 
Calculating total energy with cut-off of  500.000 eV.
------------------------------------------------------------------------ <-- SCF
SCF loop      Energy           Fermi           Energy gain       Timer   <-- SCF
                               energy          per atom          (sec)   <-- SCF
------------------------------------------------------------------------ <-- SCF
Initial  -7.23606425E+003  0.00000000E+000                        50.28  <-- SCF
      1  -7.23622619E+003  4.63395732E+000   2.02418428E-002      51.85  <-- SCF
      2  -7.23622622E+003  4.63395888E+000   3.73296422E-006      53.01  <-- SCF
      3  -7.23624262E+003  4.62865055E+000   2.05099996E-003      54.78  <-- SCF
      4  -7.23622490E+003  4.63207838E+000  -2.21520489E-003      56.49  <-- SCF
      5  -7.23622638E+003  4.63655099E+000   1.84660911E-004      58.06  <-- SCF
      6  -7.23622614E+003  4.63777582E+000  -2.99910550E-005      59.24  <-- SCF
      7  -7.23622612E+003  4.63425715E+000  -1.87058177E-006      60.37  <-- SCF
      8  -7.23622614E+003  4.63469249E+000   2.18255290E-006      61.49  <-- SCF
------------------------------------------------------------------------ <-- SCF
 
Final energy, E             =  -7236.167848515     eV
Final free energy (E-TS)    =  -7236.226141743     eV
(energies not corrected for finite basis set)
 
NB est. 0K energy (E-0.5TS)      =  -7236.196995129     eV
 
 For future reference: finite basis dEtot/dlog(Ecut) =     -10.696591eV
 Total energy corrected for finite basis set =   -7236.226459 eV

 ******************* Unconstrained Forces *******************
 *                                                          *
 *               Cartesian components (eV/A)                *
 * -------------------------------------------------------- *
 *                         x            y            z      *
 *                                                          *
 * O               1      0.06616      0.06554     -0.06332 *
 * O               2      0.06616     -0.06332      0.06555 *
 * O               3     -0.06352      0.06630      0.06631 *
 * O               4     -0.06177     -0.06237     -0.06235 *
 * Ni              1      0.08641      0.08660      0.08658 *
 * Ni              2      0.08619     -0.08959     -0.08961 *
 * Ni              3     -0.08981      0.08647     -0.08964 *
 * Ni              4     -0.08982     -0.08962      0.08647 *
 *                                                          *
 ************************************************************

 ******************** Constrained Forces ********************
 *                                                          *
 *               Cartesian components (eV/A)                *
 * -------------------------------------------------------- *
 *                         x            y            z      *
 *                                                          *
 * O               1      0.06616      0.06554     -0.06332 *
 * O               2      0.06616     -0.06332      0.06555 *
 * O               3     -0.06352      0.06630      0.06631 *
 * O               4     -0.06177     -0.06237     -0.06235 *
 * Ni              1      0.08641      0.08660      0.08658 *
 * Ni              2      0.08619     -0.08959     -0.08961 *
 * Ni              3     -0.08981      0.08647     -0.08964 *
 * Ni              4     -0.08982     -0.08962      0.08647 *
 *                                                          *
 ************************************************************

 ***************** Stress Tensor *****************
 *                                               *
 *          Cartesian components (GPa)           *
 * --------------------------------------------- *
 *             x             y             z     *
 *                                               *
 *  x     22.100739     -0.000243     -0.000217  *
 *  y     -0.000243     22.099692     -0.000123  *
 *  z     -0.000217     -0.000123     22.099492  *
 *                                               *
 *  Pressure:  -22.1000                          *
 *                                               *
 *************************************************

 Pseudo atomic calculation performed for O 2s2 2p4

 Converged in 24 iterations to a total energy of -431.4956 eV


 Pseudo atomic calculation performed for Ni 3d8 4s2

 Converged in 39 iterations to a total energy of -1362.4764 eV

Charge spilling parameter for spin component 1 = 0.19%

     Atomic Populations (Mulliken)
     -----------------------------
Species          Ion     s      p      d      f     Total  Charge (e)
=====================================================================
  O               1     1.88   4.72   0.00   0.00   6.60    -0.60
  O               2     1.88   4.72   0.00   0.00   6.60    -0.60
  O               3     1.88   4.72   0.00   0.00   6.60    -0.60
  O               4     1.88   4.72   0.00   0.00   6.60    -0.60
  Ni              1     0.35   0.46   8.59   0.00   9.40     0.60
  Ni              2     0.35   0.46   8.58   0.00   9.39     0.61
  Ni              3     0.35   0.46   8.59   0.00   9.40     0.60
  Ni              4     0.35   0.46   8.59   0.00   9.40     0.60
=====================================================================

                 Bond                   Population      Length (A)
======================================================================
               O 4 -- Ni 4                   0.42        2.09174
               O 4 -- Ni 3                   0.42        2.09174
               O 4 -- Ni 2                   0.42        2.09174
               O 3 -- Ni 4                   0.42        2.09174
               O 3 -- Ni 3                   0.42        2.09174
               O 3 -- Ni 1                   0.42        2.09174
               O 2 -- Ni 4                   0.42        2.09174
               O 2 -- Ni 2                   0.42        2.09174
               O 2 -- Ni 1                   0.42        2.09174
               O 1 -- Ni 3                   0.42        2.09174
               O 1 -- Ni 2                   0.42        2.09174
               O 1 -- Ni 1                   0.42        2.09174
              Ni 3 -- Ni 4                  -0.11        2.95817
              Ni 2 -- Ni 4                  -0.11        2.95817
              Ni 2 -- Ni 3                  -0.11        2.95817
               O 2 -- O 3                   -0.07        2.95817
               O 1 -- O 3                   -0.07        2.95817
               O 1 -- O 2                   -0.07        2.95817
              Ni 1 -- Ni 4                  -0.11        2.95817
              Ni 1 -- Ni 3                  -0.11        2.95817
              Ni 1 -- Ni 2                  -0.11        2.95817
               O 3 -- O 4                   -0.07        2.95817
               O 2 -- O 4                   -0.07        2.95817
               O 1 -- O 4                   -0.07        2.95817
======================================================================

 
 A BibTeX formatted list of references used in this run has been written to 
 castep.bib
 
Initialisation time =     11.53 s
Calculation time    =     53.50 s
Finalisation time   =      3.56 s
Total time          =     68.59 s
Peak Memory Use     = 609812 kB
  
Overall parallel efficiency rating: Very good (82%)                             
  
Data was distributed by:-
k-point (48-way); efficiency rating: Very good (82%)                            
  
Parallel notes:
1) Calculation only took 65.0 s, so efficiency estimates may be inaccurate.     
 +-------------------------------------------------+
 |                                                 |
 |      CCC   AA    SSS  TTTTT  EEEEE  PPPP        |
 |     C     A  A  S       T    E      P   P       |
 |     C     AAAA   SS     T    EEE    PPPP        |
 |     C     A  A     S    T    E      P           |
 |      CCC  A  A  SSS     T    EEEEE  P           |
 |                                                 |
 +-------------------------------------------------+
 |                                                 |
 | Welcome to Academic Release CASTEP version 17.21|          
 | Ab Initio Total Energy Program                  |
 |                                                 |
 | Authors:                                        |
 | M. Segall, M. Probert, C. Pickard, P. Hasnip,   |
 | S. Clark, K. Refson, J. R. Yates, M. Payne      |
 |                                                 |
 | Contributors:                                   |
 | P. Lindan, P. Haynes, J. White, V. Milman,      |
 | N. Govind, M. Gibson, P. Tulip, V. Cocula,      |
 | B. Montanari, D. Quigley, M. Glover,            |
 | L. Bernasconi, A. Perlov, M. Plummer,           |
 | E. McNellis, J. Meyer, J. Gale, D. Jochym       |
 | J. Aarons, B. Walker, R. Gillen, D. Jones       |
 | T. Green, I. J. Bush, C. J. Armstrong,          |
 | E. J. Higgins, E. L. Brown, M. S. McFly,        |
 | J. Wilkins, B-C. Shih, P. J. P. Byrne           |
 |                                                 |
 | Copyright (c) 2000 - 2017                       |
 |                                                 |
 |     Distributed under the terms of an           |
 |     Agreement between the United Kingdom        |
 |     Car-Parrinello (UKCP) Consortium,           |
 |     Daresbury Laboratory and Accelrys, Inc.     |
 |                                                 |
 | Please cite                                     |
 |                                                 |
 |     "First principles methods using CASTEP"     |
 |                                                 |
 |         Zeitschrift fuer Kristallographie       |
 |           220(5-6) pp. 567-570 (2005)           |
 |                                                 |
 | S. J. Clark, M. D. Segall, C. J. Pickard,       |
 | P. J. Hasnip, M. J. Probert, K. Refson,         |
 | M. C. Payne                                     |
 |                                                 |
 |       in all publications arising from          |
 |              your use of CASTEP                 |
 |                                                 |
 +-------------------------------------------------+


 Compiled for linux_x86_64_gfortran6.0-XT on Fri, 21 Jul 2017 10:20:05 +0100
 from code version 056e886bd5a1+ Castep172_branch Mon, 15 May 2017 14:45:35 +0100
 Compiler: GNU Fortran 6.3.0; Optimisation: fast
 MATHLIBS: Intel MKL(2017.0.0) (LAPACK version 3.6.0)
 FFT Lib : fftw3 version commercial-fftw-3.3.4-sse2-avx
 Fundamental constants values: CODATA 2010

 Run started: Sun, 17 Nov 2019 20:59:32 +0000

 Atomic calculation performed for O: 1s2 2s2 2p4

 Converged in 60 iterations to an ae energy of -2027.926 eV

   ============================================================                
   | Pseudopotential Report - Date of generation 17-11-2019   |                
   ------------------------------------------------------------                
   | Element: O Ionic charge:  6.00 Level of theory: LDA      |                
   | Atomic Solver: Koelling-Harmon                           |                
   |                                                          |                
   |               Reference Electronic Structure             |                
   |         Orbital         Occupation         Energy        |                
   |            2s              2.000           -0.873        |                
   |            2p              4.000           -0.338        |                
   |                                                          |                
   |                 Pseudopotential Definition               |                
   |        Beta     l      e      Rc     scheme   norm       |                
   |          1      0   -0.873   1.100     qc      0         |                
   |          2      0    0.250   1.100     qc      0         |                
   |          3      1   -0.338   1.100     qc      0         |                
   |          4      1    0.250   1.100     qc      0         |                
   |         loc     2    0.000   1.100     pn      0         |                
   |                                                          |                
   | Augmentation charge Rinner = 0.769                       |                
   | Partial core correction Rc = 0.769                       |                
   ------------------------------------------------------------                
   | "2|1.1|15|18|20|20:21(qc=7)"                             |                
   ------------------------------------------------------------                
   |      Author: Chris J. Pickard, Cambridge University      |                
   ============================================================                

 Atomic calculation performed for Ni: 1s2 2s2 2p6 3s2 3p6 3d8 4s2

 Converged in 111 iterations to an ae energy of -41308.385 eV

   ============================================================                
   | Pseudopotential Report - Date of generation 17-11-2019   |                
   ------------------------------------------------------------                
   | Element: Ni Ionic charge: 10.00 Level of theory: LDA     |                
   | Atomic Solver: Koelling-Harmon                           |                
   |                                                          |                
   |               Reference Electronic Structure             |                
   |         Orbital         Occupation         Energy        |                
   |            3d              8.000           -0.336        |                
   |            4s              2.000           -0.216        |                
   |                                                          |                
   |                 Pseudopotential Definition               |                
   |        Beta     l      e      Rc     scheme   norm       |                
   |          1      0   -0.216   2.401     qc      0         |                
   |          2      0    0.250   2.401     qc      0         |                
   |          3      1    0.000   2.401     qc      0         |                
   |          4      1    0.250   2.401     qc      0         |                
   |          5      2   -0.336   1.999     qc      0         |                
   |          6      2    0.250   1.999     qc      0         |                
   |         loc     3    0.000   2.401     pn      0         |                
   |                                                          |                
   | Augmentation charge Rinner = 1.001                       |                
   | Partial core correction Rc = 1.001                       |                
   ------------------------------------------------------------                
   | "3|2.4|2.4|1.0|8|9|10|40:41:32U2U2(qc=5.5)"              |                
   ------------------------------------------------------------                
   |      Author: Chris J. Pickard, Cambridge University      |                
   ============================================================                

 Pseudo atomic calculation performed for O 2s2 2p4

 Converged in 24 iterations to a total energy of -431.4956 eV


 Pseudo atomic calculation performed for Ni 3d8 4s2

 Converged in 39 iterations to a total energy of -1362.4764 eV

 Calculation parallelised over 48 processes.
 Data is distributed by k-point(48-way)

 ************************************ Title ************************************
 

 ***************************** General Parameters ******************************
  
 output verbosity                               : normal  (1)
 write checkpoint data to                       : castep.check
 type of calculation                            : single point energy
 stress calculation                             : on
 density difference calculation                 : off
 electron localisation func (ELF) calculation   : off
 Hirshfeld analysis                             : off
 unlimited duration calculation
 timing information                             : on
 memory usage estimate                          : on
 write final potential to formatted file        : off
 write final density to formatted file          : off
 write BibTeX reference list                    : on
 write OTFG pseudopotential files               : on
 write electrostatic potential file             : on
 write bands file                               : on
 checkpoint writing                             : off
  
 output         length unit                     : A
 output           mass unit                     : amu
 output           time unit                     : ps
 output         charge unit                     : e
 output           spin unit                     : hbar/2
 output         energy unit                     : eV
 output          force unit                     : eV/A
 output       velocity unit                     : A/ps
 output       pressure unit                     : GPa
 output     inv_length unit                     : 1/A
 output      frequency unit                     : cm-1
 output force constant unit                     : eV/A**2
 output         volume unit                     : A**3
 output   IR intensity unit                     : (D/A)**2/amu
 output         dipole unit                     : D
 output         efield unit                     : eV/A/e
 output        entropy unit                     : J/mol/K
  
 wavefunctions paging                           : none
 random number generator seed                   : randomised (205932627)
 data distribution                              : optimal for this architecture
 optimization strategy                          : maximize speed(+++)

 *********************** Exchange-Correlation Parameters ***********************
  
 using functional                               : Local Density Approximation
 relativistic treatment                         : Koelling-Harmon
 DFT+D: Semi-empirical dispersion correction    : off

 ************************* Pseudopotential Parameters **************************
  
 pseudopotential representation                 : reciprocal space
 <beta|phi> representation                      : reciprocal space
 spin-orbit coupling                            : off

 **************************** Basis Set Parameters *****************************
  
 plane wave basis set cut-off                   :   500.0000   eV
 size of standard grid                          :     1.7500
 size of   fine   gmax                          :    20.0476   1/A
 finite basis set correction                    : automatic
 number of sample energies                      :          3
           sample  spacing                      :     5.0000   eV

 **************************** Electronic Parameters ****************************
  
 number of  electrons                           :  64.00    
 net charge of system                           :  0.000    
 treating system as non-spin-polarized
 number of bands                                :         38

 ********************* Electronic Minimization Parameters **********************
  
 Method: Treating system as metallic with density mixing treatment of electrons,
         and number of  SD  steps               :          1
         and number of  CG  steps               :          4
  
 total energy / atom convergence tol.           : 0.1000E-04   eV
 eigen-energy convergence tolerance             : 0.1000E-05   eV
 max force / atom convergence tol.              : ignored
 convergence tolerance window                   :          3   cycles
 max. number of SCF cycles                      :        250
 number of fixed-spin iterations                :         10
 smearing scheme                                : Gaussian
 smearing width                                 : 0.1000       eV
 Fermi energy convergence tolerance             : 0.2721E-13   eV
 periodic dipole correction                     : NONE

 ************************** Density Mixing Parameters **************************
  
 density-mixing scheme                          : Pulay
 max. length of mixing history                  :         20
 charge density mixing amplitude                : 0.8000    
 cut-off energy for mixing                      :  500.0       eV

 *********************** Population Analysis Parameters ************************
  
 Population analysis with cutoff                :  3.000       A

 *******************************************************************************
  

                           -------------------------------
                                      Unit Cell
                           -------------------------------
        Real Lattice(A)                      Reciprocal Lattice(1/A)
   4.1770000   0.0000000   0.0000000        1.5042340   0.0000000   0.0000000
   0.0000000   4.1770000   0.0000000        0.0000000   1.5042340   0.0000000
   0.0000000   0.0000000   4.1770000        0.0000000   0.0000000   1.5042340

                       Lattice parameters(A)       Cell Angles
                    a =    4.177000          alpha =   90.000000
                    b =    4.177000          beta  =   90.000000
                    c =    4.177000          gamma =   90.000000

                       Current cell volume =   72.877493       A**3
                                   density =    4.099636   AMU/A**3
                                           =    6.807605     g/cm^3

                           -------------------------------
                                     Cell Contents
                           -------------------------------
                         Total number of ions in cell =    8
                      Total number of species in cell =    2
                        Max number of any one species =    4

            xxxxxxxxxxxxxxxxxxxxxxxxxxxxxxxxxxxxxxxxxxxxxxxxxxxxxxxxxxxx
            x  Element    Atom        Fractional coordinates of atoms  x
            x            Number           u          v          w      x
            x----------------------------------------------------------x
            x  O            1         0.000000   0.000000   0.500000   x 
            x  O            2         0.000000   0.500000   0.000000   x 
            x  O            3         0.500000   0.000000   0.000000   x 
            x  O            4         0.500000   0.500000   0.500000   x 
            x  Ni           1         0.000000   0.000000   0.000000   x 
            x  Ni           2         0.000000   0.500000   0.500000   x 
            x  Ni           3         0.500000   0.000000   0.500000   x 
            x  Ni           4         0.500000   0.500000   0.000000   x 
            xxxxxxxxxxxxxxxxxxxxxxxxxxxxxxxxxxxxxxxxxxxxxxxxxxxxxxxxxxxx


                         No user defined ionic velocities

                           -------------------------------
                                   Details of Species
                           -------------------------------

                               Mass of species in AMU
                                    O   15.9994000
                                    Ni   58.6934000

                          Electric Quadrupole Moment (Barn)
                                    O   -0.0255800 Isotope 17
                                    Ni    0.1620000 Isotope 61

                          Files used for pseudopotentials:
                                    O 2|1.1|15|18|20|20:21(qc=7)
                                    Ni 3|2.4|2.4|1.0|8|9|10|40:41:32U2U2(qc=5.5)

                           -------------------------------
                              k-Points For BZ Sampling
                           -------------------------------
                       MP grid size for SCF calculation is  8  8  8
                            with an offset of   0.000  0.000  0.000
                       Number of kpoints used =           256

                           -------------------------------
                               Symmetry and Constraints
                           -------------------------------

                      Cell is a supercell containing 4 primitive cells
                      Maximum deviation from symmetry =  0.00000         ANG

                      Number of symmetry operations   =           1
                      Number of ionic constraints     =           3
                      Point group of crystal =     1: C1, 1, 1
                      Space group of crystal =   225: Fm-3m, -F 4 2 3

             Set iprint > 1 for details on symmetry rotations/translations

                         Centre of mass is constrained
             Set iprint > 1 for details of linear ionic constraints

                         Number of cell constraints= 0
                         Cell constraints are:  1 2 3 4 5 6

                         External pressure/stress (GPa)
                          0.00000   0.00000   0.00000
                                    0.00000   0.00000
                                              0.00000
  
+---------------- MEMORY AND SCRATCH DISK ESTIMATES PER PROCESS --------------+
|                                                     Memory          Disk    |
| Baseline code, static data and system overhead      172.0 MB         0.0 MB |
| BLAS internal memory storage                          0.0 MB         0.0 MB |
| Model and support data                               75.1 MB         0.0 MB |
| Electronic energy minimisation requirements          24.3 MB         0.0 MB |
| Force calculation requirements                        2.9 MB         0.0 MB |
| Stress calculation requirements                       3.2 MB         0.0 MB |
|                                               ----------------------------- |
| Approx. total storage required per process          271.3 MB         0.0 MB |
|                                                                             |
| Requirements will fluctuate during execution and may exceed these estimates |
+-----------------------------------------------------------------------------+
Calculating finite basis set correction with  3 cut-off energies.
Calculating total energy with cut-off of  490.000 eV.
------------------------------------------------------------------------ <-- SCF
SCF loop      Energy           Fermi           Energy gain       Timer   <-- SCF
                               energy          per atom          (sec)   <-- SCF
------------------------------------------------------------------------ <-- SCF
Initial  -6.18442100E+003  0.00000000E+000                        15.46  <-- SCF
      1  -7.06552520E+003  6.79809867E+000   1.10138025E+002      17.26  <-- SCF
      2  -7.23035115E+003  3.68580565E+000   2.06032440E+001      18.84  <-- SCF
      3  -7.23808093E+003  3.94064569E+000   9.66223033E-001      20.21  <-- SCF
      4  -7.23698075E+003  5.53571479E+000  -1.37523205E-001      21.87  <-- SCF
      5  -7.23640308E+003  5.11962135E+000  -7.22082511E-002      23.57  <-- SCF
      6  -7.23653727E+003  4.87278832E+000   1.67737522E-002      25.30  <-- SCF
      7  -7.23638469E+003  4.83948522E+000  -1.90723160E-002      26.98  <-- SCF
      8  -7.23632848E+003  5.00865108E+000  -7.02589502E-003      28.66  <-- SCF
      9  -7.23630637E+003  5.01259621E+000  -2.76373311E-003      30.33  <-- SCF
     10  -7.23630822E+003  5.01260570E+000   2.30875198E-004      31.90  <-- SCF
     11  -7.23630854E+003  5.01259249E+000   3.96534735E-005      33.29  <-- SCF
     12  -7.23630802E+003  5.01261996E+000  -6.45038548E-005      34.50  <-- SCF
     13  -7.23630806E+003  5.01266342E+000   4.55008755E-006      35.59  <-- SCF
     14  -7.23630806E+003  5.01272992E+000  -4.73645870E-009      36.67  <-- SCF
[...]
 output        entropy unit                     : J/mol/K
  
 wavefunctions paging                           : none
 random number generator seed                   : randomised (214331222)
 data distribution                              : optimal for this architecture
 optimization strategy                          : maximize speed(+++)

 *********************** Exchange-Correlation Parameters ***********************
  
 using functional                               : Local Density Approximation
 relativistic treatment                         : Koelling-Harmon
 DFT+D: Semi-empirical dispersion correction    : off

 ************************* Pseudopotential Parameters **************************
  
 pseudopotential representation                 : reciprocal space
 <beta|phi> representation                      : reciprocal space
 spin-orbit coupling                            : off

 **************************** Basis Set Parameters *****************************
  
 plane wave basis set cut-off                   :   500.0000   eV
 size of standard grid                          :     1.7500
 size of   fine   gmax                          :    20.0476   1/A
 finite basis set correction                    : automatic
 number of sample energies                      :          3
           sample  spacing                      :     5.0000   eV

 **************************** Electronic Parameters ****************************
  
 number of  electrons                           :  64.00    
 net charge of system                           :  0.000    
 treating system as non-spin-polarized
 number of bands                                :         38

 ********************* Electronic Minimization Parameters **********************
  
 Method: Treating system as metallic with density mixing treatment of electrons,
         and number of  SD  steps               :          1
         and number of  CG  steps               :          4
  
 total energy / atom convergence tol.           : 0.1000E-04   eV
 eigen-energy convergence tolerance             : 0.1000E-05   eV
 max force / atom convergence tol.              : ignored
 convergence tolerance window                   :          3   cycles
 max. number of SCF cycles                      :        250
 number of fixed-spin iterations                :         10
 smearing scheme                                : Gaussian
 smearing width                                 : 0.1000       eV
 Fermi energy convergence tolerance             : 0.2721E-13   eV
 periodic dipole correction                     : NONE

 ************************** Density Mixing Parameters **************************
  
 density-mixing scheme                          : Pulay
 max. length of mixing history                  :         20
 charge density mixing amplitude                : 0.8000    
 cut-off energy for mixing                      :  500.0       eV

 *********************** Population Analysis Parameters ************************
  
 Population analysis with cutoff                :  3.000       A

 *******************************************************************************
  

                           -------------------------------
                                      Unit Cell
                           -------------------------------
        Real Lattice(A)                      Reciprocal Lattice(1/A)
   4.1402680   0.0000000   0.0000000        1.5175794   0.0000000   0.0000000
   0.0000000   4.0590910   0.0405910        0.0000000   1.5480840  -0.0154808
   0.0000000   0.0405910   4.0591000        0.0000000  -0.0154808   1.5480805

                       Lattice parameters(A)       Cell Angles
                    a =    4.140268          alpha =   88.854121
                    b =    4.059294          beta  =   90.000000
                    c =    4.059303          gamma =   90.000000

                       Current cell volume =   68.209295       A**3
                                   density =    4.380212   AMU/A**3
                                           =    7.273513     g/cm^3

                           -------------------------------
                                     Cell Contents
                           -------------------------------
                         Total number of ions in cell =    8
                      Total number of species in cell =    2
                        Max number of any one species =    4

            xxxxxxxxxxxxxxxxxxxxxxxxxxxxxxxxxxxxxxxxxxxxxxxxxxxxxxxxxxxx
            x  Element    Atom        Fractional coordinates of atoms  x
            x            Number           u          v          w      x
            x----------------------------------------------------------x
            x  O            1        -0.000004   0.000000   0.500001   x 
            x  O            2        -0.000004   0.500000   0.000001   x 
            x  O            3         0.499996  -0.000000   0.000002   x 
            x  O            4         0.499996   0.500000   0.500001   x 
            x  Ni           1        -0.000005  -0.000000   0.000001   x 
            x  Ni           2        -0.000004   0.500000   0.500001   x 
            x  Ni           3         0.499996   0.000000   0.500001   x 
            x  Ni           4         0.499996   0.500000   0.000001   x 
            xxxxxxxxxxxxxxxxxxxxxxxxxxxxxxxxxxxxxxxxxxxxxxxxxxxxxxxxxxxx


                         No user defined ionic velocities

                           -------------------------------
                                   Details of Species
                           -------------------------------

                               Mass of species in AMU
                                    O   15.9994000
                                    Ni   58.6934000

                          Electric Quadrupole Moment (Barn)
                                    O   -0.0255800 Isotope 17
                                    Ni    0.1620000 Isotope 61

                          Files used for pseudopotentials:
                                    O 2|1.1|15|18|20|20:21(qc=7)
                                    Ni 3|2.4|2.4|1.0|8|9|10|40:41:32U2U2(qc=5.5)

                           -------------------------------
                              k-Points For BZ Sampling
                           -------------------------------
                       MP grid size for SCF calculation is  9  9  9
                            with an offset of   0.000  0.000  0.000
                       Number of kpoints used =           365

                           -------------------------------
                               Symmetry and Constraints
                           -------------------------------

                      Cell is a supercell containing 4 primitive cells
                      Maximum deviation from symmetry =  0.00000         ANG

                      Number of symmetry operations   =           1
                      Number of ionic constraints     =           3
                      Point group of crystal =     1: C1, 1, 1
                      Space group of crystal =    71: Immm, -I 2 2

             Set iprint > 1 for details on symmetry rotations/translations

                         Centre of mass is constrained
             Set iprint > 1 for details of linear ionic constraints

                         Number of cell constraints= 0
                         Cell constraints are:  1 2 3 4 5 6

                         External pressure/stress (GPa)
                          0.00000   0.00000   0.00000
                                    0.00000   0.00000
                                              0.00000
  
+---------------- MEMORY AND SCRATCH DISK ESTIMATES PER PROCESS --------------+
|                                                     Memory          Disk    |
| Baseline code, static data and system overhead      190.0 MB         0.0 MB |
| BLAS internal memory storage                          0.0 MB         0.0 MB |
| Model and support data                               77.2 MB         0.0 MB |
| Electronic energy minimisation requirements          27.5 MB         0.0 MB |
| Force calculation requirements                        2.9 MB         0.0 MB |
| Stress calculation requirements                       3.2 MB         0.0 MB |
|                                               ----------------------------- |
| Approx. total storage required per process          294.6 MB         0.0 MB |
|                                                                             |
| Requirements will fluctuate during execution and may exceed these estimates |
+-----------------------------------------------------------------------------+
Calculating finite basis set correction with  3 cut-off energies.
Calculating total energy with cut-off of  490.000 eV.
------------------------------------------------------------------------ <-- SCF
SCF loop      Energy           Fermi           Energy gain       Timer   <-- SCF
                               energy          per atom          (sec)   <-- SCF
------------------------------------------------------------------------ <-- SCF
Initial  -6.18605715E+003  0.00000000E+000                        22.01  <-- SCF
      1  -7.07036396E+003  7.45839047E+000   1.10538352E+002      24.36  <-- SCF
      2  -7.23127568E+003  4.55552619E+000   2.01139644E+001      26.38  <-- SCF
      3  -7.23851804E+003  4.79732946E+000   9.05294935E-001      28.15  <-- SCF
      4  -7.23732912E+003  6.35662455E+000  -1.48614761E-001      30.26  <-- SCF
      5  -7.23676853E+003  5.97835676E+000  -7.00735723E-002      32.44  <-- SCF
      6  -7.23674767E+003  5.71067562E+000  -2.60783769E-003      34.65  <-- SCF
      7  -7.23687004E+003  5.75893097E+000   1.52968336E-002      36.84  <-- SCF
      8  -7.23668118E+003  5.86460052E+000  -2.36073774E-002      39.01  <-- SCF
      9  -7.23668863E+003  5.86342536E+000   9.31066465E-004      41.17  <-- SCF
     10  -7.23668880E+003  5.86165324E+000   2.06281690E-005      42.71  <-- SCF
     11  -7.23668883E+003  5.86129339E+000   4.40843597E-006      44.22  <-- SCF
     12  -7.23668872E+003  5.86120921E+000  -1.45188476E-005      45.65  <-- SCF
     13  -7.23668872E+003  5.86150091E+000   8.73793393E-007      47.10  <-- SCF
     14  -7.23668872E+003  5.86164696E+000  -7.03405783E-008      48.53  <-- SCF
------------------------------------------------------------------------ <-- SCF
 
Final energy, E             =  -7236.652900813     eV
Final free energy (E-TS)    =  -7236.688722199     eV
(energies not corrected for finite basis set)
 
NB est. 0K energy (E-0.5TS)      =  -7236.670811506     eV
 
Calculating total energy with cut-off of  495.000 eV.
------------------------------------------------------------------------ <-- SCF
SCF loop      Energy           Fermi           Energy gain       Timer   <-- SCF
                               energy          per atom          (sec)   <-- SCF
------------------------------------------------------------------------ <-- SCF
Initial  -7.23665290E+003  0.00000000E+000                        49.11  <-- SCF
      1  -7.23680715E+003  5.86045664E+000   1.92812954E-002      51.10  <-- SCF
      2  -7.23680719E+003  5.86045820E+000   4.50378502E-006      52.56  <-- SCF
      3  -7.23681396E+003  5.85745042E+000   8.46904611E-004      54.77  <-- SCF
      4  -7.23680683E+003  5.85678595E+000  -8.91486468E-004      56.89  <-- SCF
      5  -7.23680722E+003  5.86296164E+000   4.86802887E-005      58.85  <-- SCF
      6  -7.23680710E+003  5.86348915E+000  -1.53976481E-005      60.30  <-- SCF
      7  -7.23680708E+003  5.86003147E+000  -1.39656583E-006      61.74  <-- SCF
      8  -7.23680710E+003  5.86040392E+000   1.53589703E-006      63.19  <-- SCF
------------------------------------------------------------------------ <-- SCF
 
Final energy, E             =  -7236.771316240     eV
Final free energy (E-TS)    =  -7236.807096508     eV
(energies not corrected for finite basis set)
 
NB est. 0K energy (E-0.5TS)      =  -7236.789206374     eV
 
Calculating total energy with cut-off of  500.000 eV.
------------------------------------------------------------------------ <-- SCF
SCF loop      Energy           Fermi           Energy gain       Timer   <-- SCF
                               energy          per atom          (sec)   <-- SCF
------------------------------------------------------------------------ <-- SCF
Initial  -7.23677098E+003  0.00000000E+000                        63.74  <-- SCF
      1  -7.23692086E+003  5.86351398E+000   1.87351564E-002      65.76  <-- SCF
      2  -7.23692090E+003  5.86351521E+000   4.52233527E-006      67.40  <-- SCF
      3  -7.23842730E+003  6.00064273E+000   1.88299673E-001      69.60  <-- SCF
      4  -7.23684237E+003  5.84958845E+000  -1.98115264E-001      71.80  <-- SCF
      5  -7.23691239E+003  5.84369986E+000   8.75131659E-003      73.97  <-- SCF
      6  -7.23691316E+003  5.86047428E+000   9.74244117E-005      76.17  <-- SCF
      7  -7.23691307E+003  5.86019196E+000  -1.20217089E-005      77.73  <-- SCF
      8  -7.23691284E+003  5.85797218E+000  -2.88054341E-005      79.19  <-- SCF
      9  -7.23691276E+003  5.85922666E+000  -9.76670699E-006      80.64  <-- SCF
     10  -7.23691272E+003  5.85985278E+000  -4.64160211E-006      82.08  <-- SCF
     11  -7.23691272E+003  5.85989361E+000  -3.61856589E-007      83.51  <-- SCF
------------------------------------------------------------------------ <-- SCF
 
Final energy, E             =  -7236.876914272     eV
Final free energy (E-TS)    =  -7236.912719965     eV
(energies not corrected for finite basis set)
 
NB est. 0K energy (E-0.5TS)      =  -7236.894817119     eV
 
 For future reference: finite basis dEtot/dlog(Ecut) =     -10.961996eV
 Total energy corrected for finite basis set =   -7236.912150 eV

 ******************* Unconstrained Forces *******************
 *                                                          *
 *               Cartesian components (eV/A)                *
 * -------------------------------------------------------- *
 *                         x            y            z      *
 *                                                          *
 * O               1     -0.00000     -0.00000      0.00000 *
 * O               2     -0.00000      0.00001      0.00000 *
 * O               3     -0.00002     -0.00000     -0.00003 *
 * O               4     -0.00000      0.00000      0.00000 *
 * Ni              1      0.00003     -0.00000      0.00000 *
 * Ni              2     -0.00000      0.00000     -0.00000 *
 * Ni              3     -0.00000     -0.00001      0.00002 *
 * Ni              4     -0.00000      0.00001      0.00000 *
 *                                                          *
 ************************************************************

 ******************** Constrained Forces ********************
 *                                                          *
 *               Cartesian components (eV/A)                *
 * -------------------------------------------------------- *
 *                         x            y            z      *
 *                                                          *
 * O               1     -0.00000     -0.00000      0.00000 *
 * O               2     -0.00000      0.00001      0.00000 *
 * O               3     -0.00002     -0.00000     -0.00003 *
 * O               4     -0.00000      0.00000      0.00000 *
 * Ni              1      0.00003     -0.00000      0.00000 *
 * Ni              2     -0.00000      0.00000     -0.00000 *
 * Ni              3     -0.00000     -0.00001      0.00002 *
 * Ni              4     -0.00000      0.00001      0.00000 *
 *                                                          *
 ************************************************************

 ***************** Stress Tensor *****************
 *                                               *
 *          Cartesian components (GPa)           *
 * --------------------------------------------- *
 *             x             y             z     *
 *                                               *
 *  x      5.385025      0.000001      0.000001  *
 *  y      0.000001      2.750858      0.803651  *
 *  z      0.000001      0.803651      2.751395  *
 *                                               *
 *  Pressure:   -3.6291                          *
 *                                               *
 *************************************************

 Pseudo atomic calculation performed for O 2s2 2p4

 Converged in 24 iterations to a total energy of -431.4956 eV


 Pseudo atomic calculation performed for Ni 3d8 4s2

 Converged in 39 iterations to a total energy of -1362.4764 eV

Charge spilling parameter for spin component 1 = 0.21%

     Atomic Populations (Mulliken)
     -----------------------------
Species          Ion     s      p      d      f     Total  Charge (e)
=====================================================================
  O               1     1.87   4.74   0.00   0.00   6.61    -0.61
  O               2     1.87   4.74   0.00   0.00   6.61    -0.61
  O               3     1.87   4.74   0.00   0.00   6.61    -0.61
  O               4     1.87   4.74   0.00   0.00   6.61    -0.61
  Ni              1     0.34   0.46   8.60   0.00   9.39     0.61
  Ni              2     0.34   0.46   8.60   0.00   9.39     0.61
  Ni              3     0.34   0.46   8.60   0.00   9.39     0.61
  Ni              4     0.34   0.46   8.60   0.00   9.39     0.61
=====================================================================

                 Bond                   Population      Length (A)
======================================================================
               O 3 -- Ni 4                   0.45        2.02965
               O 4 -- Ni 3                   0.45        2.02965
               O 1 -- Ni 2                   0.45        2.02965
               O 2 -- Ni 1                   0.45        2.02965
               O 3 -- Ni 3                   0.45        2.02965
               O 4 -- Ni 4                   0.45        2.02965
               O 2 -- Ni 2                   0.45        2.02965
               O 1 -- Ni 1                   0.45        2.02965
               O 3 -- Ni 1                   0.40        2.07013
               O 4 -- Ni 2                   0.40        2.07013
               O 2 -- Ni 4                   0.40        2.07013
               O 1 -- Ni 3                   0.40        2.07013
               O 3 -- O 4                   -0.09        2.84151
              Ni 3 -- Ni 4                  -0.17        2.84151
               O 1 -- O 2                   -0.09        2.84151
              Ni 1 -- Ni 2                  -0.17        2.84151
              Ni 1 -- Ni 4                  -0.16        2.89912
               O 2 -- O 3                   -0.08        2.89912
              Ni 2 -- Ni 3                  -0.16        2.89912
               O 1 -- O 4                   -0.08        2.89912
              Ni 1 -- Ni 3                  -0.16        2.89912
               O 1 -- O 3                   -0.08        2.89912
              Ni 2 -- Ni 4                  -0.16        2.89913
               O 2 -- O 4                   -0.08        2.89913
======================================================================

 
 A BibTeX formatted list of references used in this run has been written to 
 castep.bib
 
Initialisation time =     19.93 s
Calculation time    =     67.49 s
Finalisation time   =     12.11 s
Total time          =     99.52 s
Peak Memory Use     = 704588 kB
  
Overall parallel efficiency rating: Good (77%)                                  
  
Data was distributed by:-
k-point (48-way); efficiency rating: Good (78%)                                 
  
Parallel notes:
1) Calculation only took 87.4 s, so efficiency estimates may be inaccurate.     
