2
Lattice="3.2745217355927605 -2.2199307264098225e-13 -3.079430562612901e-12 -2.2199307264098225e-13 3.2745217355889515 -1.786956150430192e-11 -3.0794305626129015e-12 -1.786956150430192e-11 3.2745217355725296" Properties=species:S:1:pos:R:3 energy=-3187.10717166 pbc="T T T" n_minim_iter=0
Ti       0.00000000       0.00000000      -0.00000000 
Ti       1.63726087       1.63726087       1.63726087 
