2
Lattice="2.92276366075473 -1.9814597002114415e-13 -2.748629714804199e-12 -1.9814597002114415e-13 2.92276366075133 -1.5949964365999477e-11 -2.7486297148041992e-12 -1.5949964365999477e-11 2.922763660736672" Properties=species:S:1:pos:R:3 energy=-3186.53611022 pbc="T T T" n_minim_iter=0
Ti       0.00000000       0.00000000      -0.00000000 
Ti       1.46138183       1.46138183       1.46138183 
