2
Lattice="3.039796704669939 -2.0608011342195477e-13 -2.858690102661992e-12 -2.0608011342195477e-13 3.0397967046664025 -1.658863142798492e-11 -2.8586901026619923e-12 -1.658863142798492e-11 3.039796704651158" Properties=species:S:1:pos:R:3 energy=-3187.11555774 pbc="T T T" n_minim_iter=0
Ti       0.00000000       0.00000000      -0.00000000 
Ti       1.51989835       1.51989835       1.51989835 
