2
Lattice="3.3915667927620903 -2.2992803046887875e-13 -3.1895022479928618e-12 -2.2992803046887875e-13 3.391566792758145 -1.8508294124436214e-11 -3.189502247992862e-12 -1.8508294124436214e-11 3.391566792741136" Properties=species:S:1:pos:R:3 energy=-3186.74807447 pbc="T T T" n_minim_iter=0
Ti       0.00000000       0.00000000      -0.00000000 
Ti       1.69578340       1.69578340       1.69578340 
