2
Lattice="3.0950778113570134 -2.0982784323515635e-13 -2.910677642587857e-12 -2.0982784323515635e-13 3.0950778113534128 -1.6890308807381433e-11 -2.9106776425878572e-12 -1.6890308807381433e-11 3.095077811337891" Properties=species:S:1:pos:R:3 energy=-3187.24073851 pbc="T T T" n_minim_iter=0
Ti       0.00000000       0.00000000      -0.00000000 
Ti       1.54753891       1.54753891       1.54753891 
