2
Lattice="3.1744731528565535 -2.1521037455913075e-13 -2.985342726800075e-12 -2.1521037455913075e-13 3.174473152852861 -1.732358122168845e-11 -2.9853427268000753e-12 -1.732358122168845e-11 3.1744731528369408" Properties=species:S:1:pos:R:3 energy=-3187.2670915 pbc="T T T" n_minim_iter=0
Ti       0.00000000       0.00000000      -0.00000000 
Ti       1.58723658       1.58723658       1.58723658 
