2
Lattice="3.345729190083254 -2.268205139877492e-13 -3.1463955820416697e-12 -2.268205139877492e-13 3.3457291900793624 -1.8258151377977718e-11 -3.14639558204167e-12 -1.8258151377977718e-11 3.3457291900625834" Properties=species:S:1:pos:R:3 energy=-3186.90756517 pbc="T T T" n_minim_iter=0
Ti       0.00000000       0.00000000      -0.00000000 
Ti       1.67286460       1.67286460       1.67286460 
