2
Lattice="3.067686305703273 -2.0797086227874932e-13 -2.8849180824208686e-12 -2.0797086227874932e-13 3.0676863056997044 -1.6740829208680177e-11 -2.884918082420869e-12 -1.6740829208680177e-11 3.0676863056843198" Properties=species:S:1:pos:R:3 energy=-3187.19021589 pbc="T T T" n_minim_iter=0
Ti       0.00000000       0.00000000      -0.00000000 
Ti       1.53384315       1.53384315       1.53384315 
