2
Lattice="2.8605582195682357 -1.9392881156594826e-13 -2.6901303820105405e-12 -1.9392881156594826e-13 2.8605582195649077 -1.561049984356195e-11 -2.690130382010541e-12 -1.561049984356195e-11 2.860558219550562" Properties=species:S:1:pos:R:3 energy=-3186.02056941 pbc="T T T" n_minim_iter=0
Ti       0.00000000       0.00000000      -0.00000000 
Ti       1.43027911       1.43027911       1.43027911 
