2
Lattice="3.322331716970733 -2.2523430465164197e-13 -3.124392095850863e-12 -2.2523430465164197e-13 3.3223317169668687 -1.813046782031956e-11 -3.1243920958508634e-12 -1.813046782031956e-11 3.322331716950207" Properties=species:S:1:pos:R:3 energy=-3186.97989159 pbc="T T T" n_minim_iter=0
Ti       0.00000000       0.00000000      -0.00000000 
Ti       1.66116586       1.66116586       1.66116586 
