2
Lattice="3.12199288241872 -2.1165252476357413e-13 -2.935989153432757e-12 -2.1165252476357413e-13 3.121992882415088 -1.7037188430290015e-11 -2.9359891534327573e-12 -1.7037188430290015e-11 3.1219928823994314" Properties=species:S:1:pos:R:3 energy=-3187.26864423 pbc="T T T" n_minim_iter=0
Ti       0.00000000       0.00000000      -0.00000000 
Ti       1.56099644       1.56099644       1.56099644 
