2
Lattice="3.2000748484110333 -2.1694601704981315e-13 -3.0094191111123946e-12 -2.1694601704981315e-13 3.200074848407311 -1.7463293555356124e-11 -3.009419111112395e-12 -1.7463293555356124e-11 3.2000748483912624" Properties=species:S:1:pos:R:3 energy=-3187.24331801 pbc="T T T" n_minim_iter=0
Ti       0.00000000       0.00000000      -0.00000000 
Ti       1.60003742       1.60003742       1.60003742 
