2
Lattice="3.0113857274707776 -2.0415401836611208e-13 -2.8319718095598826e-12 -2.0415401836611208e-13 3.0113857274672746 -1.6433588418515988e-11 -2.831971809559883e-12 -1.6433588418515988e-11 3.0113857274521725" Properties=species:S:1:pos:R:3 energy=-3187.01511475 pbc="T T T" n_minim_iter=0
Ti       0.00000000       0.00000000      -0.00000000 
Ti       1.50569286       1.50569286       1.50569286 
