2
Lattice="2.891995442494983 -1.9606006805966789e-13 -2.719694621585446e-12 -1.9606006805966789e-13 2.8919954424916186 -1.5782057534722694e-11 -2.7196946215854464e-12 -1.5782057534722694e-11 2.891995442477115" Properties=species:S:1:pos:R:3 energy=-3186.30361781 pbc="T T T" n_minim_iter=0
Ti       0.00000000       0.00000000      -0.00000000 
Ti       1.44599772       1.44599772       1.44599772 
