2
Lattice="3.1484517107472847 -2.1344627575178526e-13 -2.960871603813304e-12 -2.1344627575178526e-13 3.1484517107436223 -1.7181578267440832e-11 -2.9608716038133044e-12 -1.7181578267440832e-11 3.1484517107278327" Properties=species:S:1:pos:R:3 energy=-3187.27613025 pbc="T T T" n_minim_iter=0
Ti       0.00000000       0.00000000      -0.00000000 
Ti       1.57422586       1.57422586       1.57422586 
