2
Lattice="3.2985999660153316 -2.2362543326854013e-13 -3.10207424759778e-12 -2.2362543326854013e-13 3.2985999660114946 -1.8000960057798768e-11 -3.1020742475977802e-12 -1.8000960057798768e-11 3.298599965994952" Properties=species:S:1:pos:R:3 energy=-3187.04662524 pbc="T T T" n_minim_iter=0
Ti       0.00000000       0.00000000      -0.00000000 
Ti       1.64929998       1.64929998       1.64929998 
