16
Lattice="5.717572460325659 -1.818335477214802e-15 9.742549202917687e-41 -2.8587862301628277 4.951562998620313 4.93924354333373e-25 4.563675589437977e-40 9.05691531973384e-25 9.05629220753238" Properties=species:S:1:pos:R:3:forces:R:3 pbc="T T T"
Ti       0.00533847      -0.00000000       0.00845581      -0.03594814       0.00016218      -0.06244159 
Ti       2.85878623      -0.00000000       0.00000000       0.01847457       0.00115984       0.00448637 
Ti      -1.42939312       2.47578150       0.00000000       0.00545380      -0.00783022       0.00349941 
Ti       1.42939312       2.47578150       0.00000000       0.00670977       0.00622841       0.00261794 
Ti       0.00000000       0.00000000       4.52814610      -0.00339452       0.00062114       0.01983920 
Ti       2.85878623      -0.00000000       4.52814610       0.00335854       0.00112805      -0.00066126 
Ti      -1.42939312       2.47578150       4.52814610      -0.00045288      -0.00299283       0.00020624 
Ti       1.42939312       2.47578150       4.52814610       0.00045881       0.00093707       0.00131520 
Ti      -0.00000143       1.65052182       2.26407305       0.00048816       0.01069381       0.00706900 
Ti       2.85878480       1.65052182       2.26407305      -0.00422933       0.00013205      -0.00738853 
Ti      -1.42939455       4.12630332       2.26407305       0.01267605      -0.00696348       0.01150453 
Ti       1.42939169       4.12630332       2.26407305      -0.00591128      -0.00367660       0.00169054 
Ti      -0.00000143       1.65052182       6.79221915       0.00032498      -0.00789618       0.00788380 
Ti       2.85878480       1.65052182       6.79221915      -0.00432633       0.00105871      -0.00588463 
Ti      -1.42939455       4.12630332       6.79221915      -0.00459831       0.00200873       0.00342850 
Ti       1.42939169       4.12630332       6.79221915       0.01091609       0.00522931       0.01283528 
