 +-------------------------------------------------+
 |                                                 |
 |      CCC   AA    SSS  TTTTT  EEEEE  PPPP        |
 |     C     A  A  S       T    E      P   P       |
 |     C     AAAA   SS     T    EEE    PPPP        |
 |     C     A  A     S    T    E      P           |
 |      CCC  A  A  SSS     T    EEEEE  P           |
 |                                                 |
 +-------------------------------------------------+
 |                                                 |
 | Welcome to Academic Release CASTEP version 17.21|          
 | Ab Initio Total Energy Program                  |
 |                                                 |
 | Authors:                                        |
 | M. Segall, M. Probert, C. Pickard, P. Hasnip,   |
 | S. Clark, K. Refson, J. R. Yates, M. Payne      |
 |                                                 |
 | Contributors:                                   |
 | P. Lindan, P. Haynes, J. White, V. Milman,      |
 | N. Govind, M. Gibson, P. Tulip, V. Cocula,      |
 | B. Montanari, D. Quigley, M. Glover,            |
 | L. Bernasconi, A. Perlov, M. Plummer,           |
 | E. McNellis, J. Meyer, J. Gale, D. Jochym       |
 | J. Aarons, B. Walker, R. Gillen, D. Jones       |
 | T. Green, I. J. Bush, C. J. Armstrong,          |
 | E. J. Higgins, E. L. Brown, M. S. McFly,        |
 | J. Wilkins, B-C. Shih, P. J. P. Byrne           |
 |                                                 |
 | Copyright (c) 2000 - 2017                       |
 |                                                 |
 |     Distributed under the terms of an           |
 |     Agreement between the United Kingdom        |
 |     Car-Parrinello (UKCP) Consortium,           |
 |     Daresbury Laboratory and Accelrys, Inc.     |
 |                                                 |
 | Please cite                                     |
 |                                                 |
 |     "First principles methods using CASTEP"     |
 |                                                 |
 |         Zeitschrift fuer Kristallographie       |
 |           220(5-6) pp. 567-570 (2005)           |
 |                                                 |
 | S. J. Clark, M. D. Segall, C. J. Pickard,       |
 | P. J. Hasnip, M. J. Probert, K. Refson,         |
 | M. C. Payne                                     |
 |                                                 |
 |       in all publications arising from          |
 |              your use of CASTEP                 |
 |                                                 |
 +-------------------------------------------------+


 Compiled for linux_x86_64_gfortran6.0-XT on Fri, 21 Jul 2017 10:20:05 +0100
 from code version 056e886bd5a1+ Castep172_branch Mon, 15 May 2017 14:45:35 +0100
 Compiler: GNU Fortran 6.3.0; Optimisation: fast
 MATHLIBS: Intel MKL(2017.0.0) (LAPACK version 3.6.0)
 FFT Lib : fftw3 version commercial-fftw-3.3.4-sse2-avx
 Fundamental constants values: CODATA 2010

 Run started: Thu, 19 Sep 2019 21:18:55 +0100

 Atomic calculation performed for Al: 1s2 2s2 2p6 3s2 3p1

 Converged in 55 iterations to an ae energy of -6578.725 eV

   ============================================================                
   | Pseudopotential Report - Date of generation 19-09-2019   |                
   ------------------------------------------------------------                
   | Element: Al Ionic charge:  3.00 Level of theory: LDA     |                
   | Atomic Solver: Koelling-Harmon                           |                
   |                                                          |                
   |               Reference Electronic Structure             |                
   |         Orbital         Occupation         Energy        |                
   |            3s              2.000           -0.288        |                
   |            3p              1.000           -0.102        |                
   |                                                          |                
   |                 Pseudopotential Definition               |                
   |        Beta     l      e      Rc     scheme   norm       |                
   |          1      0   -0.288   2.192     qc      0         |                
   |          2      0    0.250   2.192     qc      0         |                
   |          3      1   -0.102   2.192     qc      0         |                
   |          4      1    0.250   2.192     qc      0         |                
   |          5      2    0.000   2.000     qc      0         |                
   |          6      2    0.250   2.000     qc      0         |                
   |         loc     3    0.000   2.192     pn      0         |                
   |                                                          |                
   | Augmentation charge Rinner = 1.398                       |                
   | Partial core correction Rc = 1.398                       |                
   ------------------------------------------------------------                
   | "3|2.2|2.2|1.4|4|5|5|30:31:32U2U2"                       |                
   ------------------------------------------------------------                
   |      Author: Chris J. Pickard, Cambridge University      |                
   ============================================================                

 Atomic calculation performed for Ti: 1s2 2s2 2p6 3s2 3p6 3d2 4s2

 Converged in 78 iterations to an ae energy of -23176.516 eV

   ============================================================                
   | Pseudopotential Report - Date of generation 19-09-2019   |                
   ------------------------------------------------------------                
   | Element: Ti Ionic charge: 12.00 Level of theory: LDA     |                
   | Atomic Solver: Koelling-Harmon                           |                
   |                                                          |                
   |               Reference Electronic Structure             |                
   |         Orbital         Occupation         Energy        |                
   |            3s              2.000           -2.288        |                
   |            3p              6.000           -1.425        |                
   |            4s              2.000           -0.169        |                
   |            3d              2.000           -0.164        |                
   |                                                          |                
   |                 Pseudopotential Definition               |                
   |        Beta     l      e      Rc     scheme   norm       |                
   |          1      0   -2.288   1.793     qc      0         |                
   |          2      0   -0.169   1.793     qc      0         |                
   |          3      0    0.250   1.793     qc      0         |                
   |          4      1   -1.425   1.793     qc      0         |                
   |          5      1    0.250   1.793     qc      0         |                
   |          6      2   -0.164   1.793     qc      0         |                
   |          7      2    0.250   1.793     qc      0         |                
   |         loc     3    0.000   1.793     pn      0         |                
   |                                                          |                
   | Augmentation charge Rinner = 1.263                       |                
   | Partial core correction Rc = 1.263                       |                
   ------------------------------------------------------------                
   | "3|1.8|9|10|11|30U:40:31:32(qc=5.5)"                     |                
   ------------------------------------------------------------                
   |      Author: Chris J. Pickard, Cambridge University      |                
   ============================================================                

 Pseudo atomic calculation performed for Al 3s2 3p1

 Converged in 15 iterations to a total energy of -105.5952 eV


 Pseudo atomic calculation performed for Ti 3s2 3p6 3d2 4s2

 Converged in 31 iterations to a total energy of -1585.9998 eV

 Calculation parallelised over 48 processes.
 Data is distributed by k-point(48-way)

 ************************************ Title ************************************
 

 ***************************** General Parameters ******************************
  
 output verbosity                               : normal  (1)
 write checkpoint data to                       : castep.check
 type of calculation                            : single point energy
 stress calculation                             : on
 density difference calculation                 : off
 electron localisation func (ELF) calculation   : off
 Hirshfeld analysis                             : off
 unlimited duration calculation
 timing information                             : on
 memory usage estimate                          : on
 write final potential to formatted file        : off
 write final density to formatted file          : off
 write BibTeX reference list                    : on
 write OTFG pseudopotential files               : on
 write electrostatic potential file             : on
 write bands file                               : on
 checkpoint writing                             : off
  
 output         length unit                     : A
 output           mass unit                     : amu
 output           time unit                     : ps
 output         charge unit                     : e
 output           spin unit                     : hbar/2
 output         energy unit                     : eV
 output          force unit                     : eV/A
 output       velocity unit                     : A/ps
 output       pressure unit                     : GPa
 output     inv_length unit                     : 1/A
 output      frequency unit                     : cm-1
 output force constant unit                     : eV/A**2
 output         volume unit                     : A**3
 output   IR intensity unit                     : (D/A)**2/amu
 output         dipole unit                     : D
 output         efield unit                     : eV/A/e
 output        entropy unit                     : J/mol/K
  
 wavefunctions paging                           : none
 random number generator seed                   : randomised (211855252)
 data distribution                              : optimal for this architecture
 optimization strategy                          : balance speed and memory

 *********************** Exchange-Correlation Parameters ***********************
  
 using functional                               : Local Density Approximation
 relativistic treatment                         : Koelling-Harmon
 DFT+D: Semi-empirical dispersion correction    : off

 ************************* Pseudopotential Parameters **************************
  
 pseudopotential representation                 : reciprocal space
 <beta|phi> representation                      : reciprocal space
 spin-orbit coupling                            : off

 **************************** Basis Set Parameters *****************************
  
 plane wave basis set cut-off                   :   600.0000   eV
 size of standard grid                          :     1.7500
 size of   fine   gmax                          :    21.9610   1/A
 finite basis set correction                    : automatic
 number of sample energies                      :          3
           sample  spacing                      :     5.0000   eV

 **************************** Electronic Parameters ****************************
  
 number of  electrons                           :  15.00    
 net charge of system                           :  0.000    
 net spin   of system                           :  1.000    
 number of  up  spins                           :  8.000    
 number of down spins                           :  7.000    
 treating system as spin-polarized
 number of bands                                :         12

 ********************* Electronic Minimization Parameters **********************
  
 Method: Treating system as metallic with density mixing treatment of electrons,
         and number of  SD  steps               :          1
         and number of  CG  steps               :          4
  
 total energy / atom convergence tol.           : 0.1000E-04   eV
 eigen-energy convergence tolerance             : 0.1000E-05   eV
 max force / atom convergence tol.              : ignored
 convergence tolerance window                   :          3   cycles
 max. number of SCF cycles                      :        250
 number of fixed-spin iterations                :         10
 smearing scheme                                : Gaussian
 smearing width                                 : 0.1000       eV
 Fermi energy convergence tolerance             : 0.2721E-13   eV
 periodic dipole correction                     : NONE

 ************************** Density Mixing Parameters **************************
  
 density-mixing scheme                          : Pulay
 max. length of mixing history                  :         20
 charge density mixing amplitude                : 0.8000    
   spin density mixing amplitude                :  2.000    
 cut-off energy for mixing                      :  600.0       eV

 *********************** Population Analysis Parameters ************************
  
 Population analysis with cutoff                :  3.000       A

 *******************************************************************************
  

                           -------------------------------
                                      Unit Cell
                           -------------------------------
        Real Lattice(A)                      Reciprocal Lattice(1/A)
   2.8241050   0.0000000   0.0000000        2.2248413   0.0000000   0.0000000
   0.0000000   2.8241050   0.0000000        0.0000000   2.2248413   0.0000000
   0.0000000   0.0000000   4.0647120        0.0000000   0.0000000   1.5457886

                       Lattice parameters(A)       Cell Angles
                    a =    2.824105          alpha =   90.000000
                    b =    2.824105          beta  =   90.000000
                    c =    4.064712          gamma =   90.000000

                       Current cell volume =   32.418391       A**3
                                   density =    2.308830   AMU/A**3
                                           =    3.833901     g/cm^3

                           -------------------------------
                                     Cell Contents
                           -------------------------------
                         Total number of ions in cell =    2
                      Total number of species in cell =    2
                        Max number of any one species =    1

            xxxxxxxxxxxxxxxxxxxxxxxxxxxxxxxxxxxxxxxxxxxxxxxxxxxxxxxxxxxx
            x  Element    Atom        Fractional coordinates of atoms  x
            x            Number           u          v          w      x
            x----------------------------------------------------------x
            x  Al           1         0.000000   0.000000   0.000000   x 
            x  Ti           1         0.500000   0.500000   0.500000   x 
            xxxxxxxxxxxxxxxxxxxxxxxxxxxxxxxxxxxxxxxxxxxxxxxxxxxxxxxxxxxx


                         No user defined ionic velocities

                           -------------------------------
                                   Details of Species
                           -------------------------------

                               Mass of species in AMU
                                    Al   26.9815400
                                    Ti   47.8670000

                          Electric Quadrupole Moment (Barn)
                                    Al    0.1466000 Isotope 27
                                    Ti    0.3020000 Isotope 47

                          Files used for pseudopotentials:
                                    Al 3|2.2|2.2|1.4|4|5|5|30:31:32U2U2
                                    Ti 3|1.8|9|10|11|30U:40:31:32(qc=5.5)

                           -------------------------------
                              k-Points For BZ Sampling
                           -------------------------------
                       MP grid size for SCF calculation is  9  9  7
                            with an offset of   0.000  0.000  0.000
                       Number of kpoints used =           284

                           -------------------------------
                               Symmetry and Constraints
                           -------------------------------

                      Maximum deviation from symmetry =  0.00000         ANG

                      Number of symmetry operations   =           1
                      Number of ionic constraints     =           3
                      Point group of crystal =     1: C1, 1, 1
                      Space group of crystal =   123: P4/mmm, -P 4 2

             Set iprint > 1 for details on symmetry rotations/translations

                         Centre of mass is constrained
             Set iprint > 1 for details of linear ionic constraints

                         Number of cell constraints= 0
                         Cell constraints are:  1 2 3 4 5 6

                         External pressure/stress (GPa)
                          0.00000   0.00000   0.00000
                                    0.00000   0.00000
                                              0.00000
  
+---------------- MEMORY AND SCRATCH DISK ESTIMATES PER PROCESS --------------+
|                                                     Memory          Disk    |
| Baseline code, static data and system overhead      172.0 MB         0.0 MB |
| BLAS internal memory storage                          0.0 MB         0.0 MB |
| Model and support data                               41.6 MB        34.3 MB |
| Electronic energy minimisation requirements          10.0 MB         0.0 MB |
| Force calculation requirements                        2.7 MB         0.0 MB |
| Stress calculation requirements                       2.7 MB         0.0 MB |
|                                               ----------------------------- |
| Approx. total storage required per process          223.6 MB        34.3 MB |
|                                                                             |
| Requirements will fluctuate during execution and may exceed these estimates |
+-----------------------------------------------------------------------------+
Calculating finite basis set correction with  3 cut-off energies.
Calculating total energy with cut-off of  590.000 eV.
------------------------------------------------------------------------ <-- SCF
SCF loop      Energy           Fermi           Energy gain       Timer   <-- SCF
                               energy          per atom          (sec)   <-- SCF
------------------------------------------------------------------------ <-- SCF
Initial  -1.41524889E+003  0.00000000E+000                        15.51  <-- SCF
      1  -1.67043959E+003  8.89929053E+000   1.27595350E+002      15.96  <-- SCF
      2  -1.70356238E+003  7.25365111E+000   1.65613953E+001      16.35  <-- SCF
      3  -1.70422431E+003  7.31487428E+000   3.30965348E-001      16.68  <-- SCF
      4  -1.70413727E+003  7.00871683E+000  -4.35216458E-002      17.13  <-- SCF
      5  -1.70413059E+003  7.30158827E+000  -3.34227853E-003      17.57  <-- SCF
      6  -1.70411694E+003  7.16322756E+000  -6.82402502E-003      18.00  <-- SCF
      7  -1.70411725E+003  7.17442856E+000   1.57061798E-004      18.43  <-- SCF
      8  -1.70411734E+003  7.17129417E+000   4.28098642E-005      18.75  <-- SCF
      9  -1.70411735E+003  7.17048299E+000   3.39955867E-006      19.05  <-- SCF
     10  -1.70418620E+003  7.08478574E+000   3.44249045E-002      19.34  <-- SCF
     11  -1.70423884E+003  6.96479917E+000   2.63200700E-002      19.78  <-- SCF
     12  -1.70425156E+003  7.03181282E+000   6.36259336E-003      20.20  <-- SCF
     13  -1.70425258E+003  6.98222867E+000   5.08489108E-004      20.62  <-- SCF
     14  -1.70425320E+003  6.99564579E+000   3.12521673E-004      21.04  <-- SCF
     15  -1.70425334E+003  6.99529670E+000   7.04282248E-005      21.43  <-- SCF
     16  -1.70425338E+003  6.99497373E+000   1.84897676E-005      21.72  <-- SCF
     17  -1.70425338E+003  6.99482580E+000   2.10019764E-006      22.00  <-- SCF
     18  -1.70425339E+003  6.99482432E+000   2.57012871E-007      22.29  <-- SCF
------------------------------------------------------------------------ <-- SCF
 
Integrated Spin Density     =    0.186528E-03 hbar/2                        
Integrated |Spin Density|   =    0.317653E-03 hbar/2                        
 
Final energy, E             =  -1704.242819985     eV
Final free energy (E-TS)    =  -1704.253385129     eV
(energies not corrected for finite basis set)
 
NB est. 0K energy (E-0.5TS)      =  -1704.248102557     eV
 
Calculating total energy with cut-off of  595.000 eV.
------------------------------------------------------------------------ <-- SCF
SCF loop      Energy           Fermi           Energy gain       Timer   <-- SCF
                               energy          per atom          (sec)   <-- SCF
------------------------------------------------------------------------ <-- SCF
Initial  -1.70424282E+003  0.00000000E+000                        22.52  <-- SCF
      1  -1.70425340E+003  6.99480720E+000   5.29038981E-003      22.83  <-- SCF
      2  -1.70425340E+003  6.99480720E+000   1.17224308E-008      23.11  <-- SCF
      3  -1.70425340E+003  6.99486805E+000   7.11899584E-009      23.40  <-- SCF
      4  -1.70425340E+003  6.99481633E+000   1.42159499E-009      23.68  <-- SCF
------------------------------------------------------------------------ <-- SCF
 
Integrated Spin Density     =    0.623321E-04 hbar/2                        
Integrated |Spin Density|   =    0.853644E-04 hbar/2                        
 
Final energy, E             =  -1704.242835950     eV
Final free energy (E-TS)    =  -1704.253400832     eV
(energies not corrected for finite basis set)
 
NB est. 0K energy (E-0.5TS)      =  -1704.248118391     eV
 
Calculating total energy with cut-off of  600.000 eV.
------------------------------------------------------------------------ <-- SCF
SCF loop      Energy           Fermi           Energy gain       Timer   <-- SCF
                               energy          per atom          (sec)   <-- SCF
------------------------------------------------------------------------ <-- SCF
Initial  -1.70424284E+003  0.00000000E+000                        23.92  <-- SCF
      1  -1.70425342E+003  6.99487824E+000   5.29037295E-003      24.23  <-- SCF
      2  -1.70425342E+003  6.99487824E+000   4.14616567E-009      24.52  <-- SCF
      3  -1.70425342E+003  6.99476860E+000   1.98423919E-009      24.80  <-- SCF
      4  -1.70425342E+003  6.99483413E+000  -1.46181149E-009      25.09  <-- SCF
------------------------------------------------------------------------ <-- SCF
 
Integrated Spin Density     =    0.265531E-04 hbar/2                        
Integrated |Spin Density|   =    0.365516E-04 hbar/2                        
 
Final energy, E             =  -1704.242851707     eV
Final free energy (E-TS)    =  -1704.253416705     eV
(energies not corrected for finite basis set)
 
NB est. 0K energy (E-0.5TS)      =  -1704.248134206     eV
 
 For future reference: finite basis dEtot/dlog(Ecut) =      -0.001887eV
 Total energy corrected for finite basis set =   -1704.253417 eV

 ******************* Unconstrained Forces *******************
 *                                                          *
 *               Cartesian components (eV/A)                *
 * -------------------------------------------------------- *
 *                         x            y            z      *
 *                                                          *
 * Al              1      0.00000      0.00000     -0.00000 *
 * Ti              1     -0.00000     -0.00000      0.00000 *
 *                                                          *
 ************************************************************

 ******************** Constrained Forces ********************
 *                                                          *
 *               Cartesian components (eV/A)                *
 * -------------------------------------------------------- *
 *                         x            y            z      *
 *                                                          *
 * Al              1      0.00000      0.00000     -0.00000 *
 * Ti              1     -0.00000     -0.00000      0.00000 *
 *                                                          *
 ************************************************************

 ***************** Stress Tensor *****************
 *                                               *
 *          Cartesian components (GPa)           *
 * --------------------------------------------- *
 *             x             y             z     *
 *                                               *
 *  x      6.714093      0.000000     -0.000000  *
 *  y      0.000000      6.714093     -0.000000  *
 *  z     -0.000000     -0.000000      6.162507  *
 *                                               *
 *  Pressure:   -6.5302                          *
 *                                               *
 *************************************************

 Pseudo atomic calculation performed for Al 3s2 3p1

 Converged in 15 iterations to a total energy of -105.5952 eV


 Pseudo atomic calculation performed for Ti 3s2 3p6 3d2 4s2

 Converged in 31 iterations to a total energy of -1585.9998 eV

Charge spilling parameter for spin component 1 = 0.25%
Charge spilling parameter for spin component 2 = 0.25%

     Atomic Populations (Mulliken)
     -----------------------------
Species          Ion     s      p      d      f     Total  Charge (e)  Spin (hbar/2)
==================================================================================
  Al              1     0.99   2.12   0.00   0.00   3.10    -0.10       -0.00
  Ti              1     2.31   6.73   2.85   0.00  11.90     0.10        0.00
==================================================================================

                 Bond                   Population        Spin       Length (A)
================================================================================
================================================================================

 
 A BibTeX formatted list of references used in this run has been written to 
 castep.bib
 
Initialisation time =     12.33 s
Calculation time    =     14.60 s
Finalisation time   =      0.03 s
Total time          =     26.95 s
Peak Memory Use     = 613876 kB
  
Overall parallel efficiency rating: Mediocre (53%)                              
  
Data was distributed by:-
k-point (48-way); efficiency rating: Mediocre (54%)                             
  
Parallel notes:
1) Calculation only took 26.9 s, so efficiency estimates may be inaccurate.     
 +-------------------------------------------------+
 |                                                 |
 |      CCC   AA    SSS  TTTTT  EEEEE  PPPP        |
 |     C     A  A  S       T    E      P   P       |
 |     C     AAAA   SS     T    EEE    PPPP        |
 |     C     A  A     S    T    E      P           |
 |      CCC  A  A  SSS     T    EEEEE  P           |
 |                                                 |
 +-------------------------------------------------+
 |                                                 |
 | Welcome to Academic Release CASTEP version 17.21|          
 | Ab Initio Total Energy Program                  |
 |                                                 |
 | Authors:                                        |
 | M. Segall, M. Probert, C. Pickard, P. Hasnip,   |
 | S. Clark, K. Refson, J. R. Yates, M. Payne      |
 |                                                 |
 | Contributors:                                   |
 | P. Lindan, P. Haynes, J. White, V. Milman,      |
 | N. Govind, M. Gibson, P. Tulip, V. Cocula,      |
 | B. Montanari, D. Quigley, M. Glover,            |
 | L. Bernasconi, A. Perlov, M. Plummer,           |
 | E. McNellis, J. Meyer, J. Gale, D. Jochym       |
 | J. Aarons, B. Walker, R. Gillen, D. Jones       |
 | T. Green, I. J. Bush, C. J. Armstrong,          |
 | E. J. Higgins, E. L. Brown, M. S. McFly,        |
 | J. Wilkins, B-C. Shih, P. J. P. Byrne           |
 |                                                 |
 | Copyright (c) 2000 - 2017                       |
 |                                                 |
 |     Distributed under the terms of an           |
 |     Agreement between the United Kingdom        |
 |     Car-Parrinello (UKCP) Consortium,           |
 |     Daresbury Laboratory and Accelrys, Inc.     |
 |                                                 |
 | Please cite                                     |
 |                                                 |
 |     "First principles methods using CASTEP"     |
 |                                                 |
 |         Zeitschrift fuer Kristallographie       |
 |           220(5-6) pp. 567-570 (2005)           |
 |                                                 |
 | S. J. Clark, M. D. Segall, C. J. Pickard,       |
 | P. J. Hasnip, M. J. Probert, K. Refson,         |
 | M. C. Payne                                     |
 |                                                 |
 |       in all publications arising from          |
 |              your use of CASTEP                 |
 |                                                 |
 +-------------------------------------------------+


 Compiled for linux_x86_64_gfortran6.0-XT on Fri, 21 Jul 2017 10:20:05 +0100
 from code version 056e886bd5a1+ Castep172_branch Mon, 15 May 2017 14:45:35 +0100
 Compiler: GNU Fortran 6.3.0; Optimisation: fast
 MATHLIBS: Intel MKL(2017.0.0) (LAPACK version 3.6.0)
 FFT Lib : fftw3 version commercial-fftw-3.3.4-sse2-avx
 Fundamental constants values: CODATA 2010

 Run started: Thu, 19 Sep 2019 21:19:32 +0100

 Atomic calculation performed for Al: 1s2 2s2 2p6 3s2 3p1

 Converged in 55 iterations to an ae energy of -6578.725 eV

   ============================================================                
   | Pseudopotential Report - Date of generation 19-09-2019   |                
   ------------------------------------------------------------                
   | Element: Al Ionic charge:  3.00 Level of theory: LDA     |                
   | Atomic Solver: Koelling-Harmon                           |                
   |                                                          |                
   |               Reference Electronic Structure             |                
   |         Orbital         Occupation         Energy        |                
   |            3s              2.000           -0.288        |                
   |            3p              1.000           -0.102        |                
   |                                                          |                
   |                 Pseudopotential Definition               |                
   |        Beta     l      e      Rc     scheme   norm       |                
   |          1      0   -0.288   2.192     qc      0         |                
   |          2      0    0.250   2.192     qc      0         |                
   |          3      1   -0.102   2.192     qc      0         |                
   |          4      1    0.250   2.192     qc      0         |                
   |          5      2    0.000   2.000     qc      0         |                
   |          6      2    0.250   2.000     qc      0         |                
   |         loc     3    0.000   2.192     pn      0         |                
   |                                                          |                
   | Augmentation charge Rinner = 1.398                       |                
   | Partial core correction Rc = 1.398                       |                
   ------------------------------------------------------------                
   | "3|2.2|2.2|1.4|4|5|5|30:31:32U2U2"                       |                
   ------------------------------------------------------------                
   |      Author: Chris J. Pickard, Cambridge University      |                
   ============================================================                

 Atomic calculation performed for Ti: 1s2 2s2 2p6 3s2 3p6 3d2 4s2

 Converged in 78 iterations to an ae energy of -23176.516 eV

   ============================================================                
   | Pseudopotential Report - Date of generation 19-09-2019   |                
   ------------------------------------------------------------                
   | Element: Ti Ionic charge: 12.00 Level of theory: LDA     |                
   | Atomic Solver: Koelling-Harmon                           |                
   |                                                          |                
   |               Reference Electronic Structure             |                
   |         Orbital         Occupation         Energy        |                
   |            3s              2.000           -2.288        |                
   |            3p              6.000           -1.425        |                
   |            4s              2.000           -0.169        |                
   |            3d              2.000           -0.164        |                
   |                                                          |                
   |                 Pseudopotential Definition               |                
   |        Beta     l      e      Rc     scheme   norm       |                
   |          1      0   -2.288   1.793     qc      0         |                
   |          2      0   -0.169   1.793     qc      0         |                
   |          3      0    0.250   1.793     qc      0         |                
   |          4      1   -1.425   1.793     qc      0         |                
   |          5      1    0.250   1.793     qc      0         |                
   |          6      2   -0.164   1.793     qc      0         |                
   |          7      2    0.250   1.793     qc      0         |                
   |         loc     3    0.000   1.793     pn      0         |                
   |                                                          |                
   | Augmentation charge Rinner = 1.263                       |                
   | Partial core correction Rc = 1.263                       |                
   ------------------------------------------------------------                
   | "3|1.8|9|10|11|30U:40:31:32(qc=5.5)"                     |                
   ------------------------------------------------------------                
   |      Author: Chris J. Pickard, Cambridge University      |                
   ============================================================                

 Pseudo atomic calculation performed for Al 3s2 3p1

 Converged in 15 iterations to a total energy of -105.5952 eV


 Pseudo atomic calculation performed for Ti 3s2 3p6 3d2 4s2

 Converged in 31 iterations to a total energy of -1585.9998 eV

 Calculation parallelised over 48 processes.
 Data is distributed by k-point(48-way)

 ************************************ Title ************************************
 

 ***************************** General Parameters ******************************
  
 output verbosity                               : normal  (1)
 write checkpoint data to                       : castep.check
 type of calculation                            : single point energy
 stress calculation                             : on
 density difference calculation                 : off
 electron localisation func (ELF) calculation   : off
 Hirshfeld analysis                             : off
 unlimited duration calculation
 timing information                             : on
 memory usage estimate                          : on
 write final potential to formatted file        : off
 write final density to formatted file          : off
 write BibTeX reference list                    : on
 write OTFG pseudopotential files               : on
 write electrostatic potential file             : on
 write bands file                               : on
 checkpoint writing                             : off
  
 output         length unit                     : A
 output           mass unit                     : amu
 output           time unit                     : ps
 output         charge unit                     : e
 output           spin unit                     : hbar/2
 output         energy unit                     : eV
 output          force unit                     : eV/A
 output       velocity unit                     : A/ps
 output       pressure unit                     : GPa
 output     inv_length unit                     : 1/A
 output      frequency unit                     : cm-1
 output force constant unit                     : eV/A**2
 output         volume unit                     : A**3
 output   IR intensity unit                     : (D/A)**2/amu
 output         dipole unit                     : D
 output         efield unit                     : eV/A/e
 output        entropy unit                     : J/mol/K
  
 wavefunctions paging                           : none
 random number generator seed                   : randomised (211933009)
 data distribution                              : optimal for this architecture
 optimization strategy                          : maximize speed(+++)

 *********************** Exchange-Correlation Parameters ***********************
  
 using functional                               : Local Density Approximation
 relativistic treatment                         : Koelling-Harmon
 DFT+D: Semi-empirical dispersion correction    : off

 ************************* Pseudopotential Parameters **************************
  
 pseudopotential representation                 : reciprocal space
 <beta|phi> representation                      : reciprocal space
 spin-orbit coupling                            : off

 **************************** Basis Set Parameters *****************************
  
 plane wave basis set cut-off                   :   600.0000   eV
 size of standard grid                          :     1.7500
 size of   fine   gmax                          :    21.9610   1/A
 finite basis set correction                    : automatic
 number of sample energies                      :          3
           sample  spacing                      :     5.0000   eV

 **************************** Electronic Parameters ****************************
  
 number of  electrons                           :  15.00    
 net charge of system                           :  0.000    
 net spin   of system                           :  1.000    
 number of  up  spins                           :  8.000    
 number of down spins                           :  7.000    
 treating system as spin-polarized
 number of bands                                :         12

 ********************* Electronic Minimization Parameters **********************
  
 Method: Treating system as metallic with density mixing treatment of electrons,
         and number of  SD  steps               :          1
         and number of  CG  steps               :          4
  
 total energy / atom convergence tol.           : 0.1000E-04   eV
 eigen-energy convergence tolerance             : 0.1000E-05   eV
 max force / atom convergence tol.              : ignored
 convergence tolerance window                   :          3   cycles
 max. number of SCF cycles                      :        250
 number of fixed-spin iterations                :         10
 smearing scheme                                : Gaussian
 smearing width                                 : 0.1000       eV
 Fermi energy convergence tolerance             : 0.2721E-13   eV
 periodic dipole correction                     : NONE

 ************************** Density Mixing Parameters **************************
  
 density-mixing scheme                          : Pulay
 max. length of mixing history                  :         20
 charge density mixing amplitude                : 0.8000    
   spin density mixing amplitude                :  2.000    
 cut-off energy for mixing                      :  600.0       eV

 *********************** Population Analysis Parameters ************************
  
 Population analysis with cutoff                :  3.000       A

 *******************************************************************************
  

                           -------------------------------
                                      Unit Cell
                           -------------------------------
        Real Lattice(A)                      Reciprocal Lattice(1/A)
   2.8524880   0.0000000   0.0000000        2.2027035   0.0000000   0.0000000
   0.0000000   2.8524880   0.0000000        0.0000000   2.2027035   0.0000000
   0.0000000   0.0000000   4.1055630        0.0000000   0.0000000   1.5304077

                       Lattice parameters(A)       Cell Angles
                    a =    2.852488          alpha =   90.000000
                    b =    2.852488          beta  =   90.000000
                    c =    4.105563          gamma =   90.000000

                       Current cell volume =   33.405684       A**3
                                   density =    2.240593   AMU/A**3
                                           =    3.720592     g/cm^3

                           -------------------------------
                                     Cell Contents
                           -------------------------------
                         Total number of ions in cell =    2
                      Total number of species in cell =    2
                        Max number of any one species =    1

            xxxxxxxxxxxxxxxxxxxxxxxxxxxxxxxxxxxxxxxxxxxxxxxxxxxxxxxxxxxx
            x  Element    Atom        Fractional coordinates of atoms  x
            x            Number           u          v          w      x
            x----------------------------------------------------------x
            x  Al           1         0.000000   0.000000   0.000000   x 
            x  Ti           1         0.508415   0.508415   0.505846   x 
            xxxxxxxxxxxxxxxxxxxxxxxxxxxxxxxxxxxxxxxxxxxxxxxxxxxxxxxxxxxx


                         No user defined ionic velocities

                           -------------------------------
                                   Details of Species
                           -------------------------------

                               Mass of species in AMU
                                    Al   26.9815400
                                    Ti   47.8670000

                          Electric Quadrupole Moment (Barn)
                                    Al    0.1466000 Isotope 27
                                    Ti    0.3020000 Isotope 47

                          Files used for pseudopotentials:
                                    Al 3|2.2|2.2|1.4|4|5|5|30:31:32U2U2
                                    Ti 3|1.8|9|10|11|30U:40:31:32(qc=5.5)

                           -------------------------------
                              k-Points For BZ Sampling
                           -------------------------------
                       MP grid size for SCF calculation is  9  9  7
                            with an offset of   0.000  0.000  0.000
                       Number of kpoints used =           284

                           -------------------------------
                               Symmetry and Constraints
                           -------------------------------

                      Maximum deviation from symmetry =  0.00000         ANG

                      Number of symmetry operations   =           1
                      Number of ionic constraints     =           3
                      Point group of crystal =     1: C1, 1, 1
                      Space group of crystal =     8: Cm, C -2y

             Set iprint > 1 for details on symmetry rotations/translations

                         Centre of mass is constrained
             Set iprint > 1 for details of linear ionic constraints

                         Number of cell constraints= 0
                         Cell constraints are:  1 2 3 4 5 6

                         External pressure/stress (GPa)
                          0.00000   0.00000   0.00000
                                    0.00000   0.00000
                                              0.00000
  
+---------------- MEMORY AND SCRATCH DISK ESTIMATES PER PROCESS --------------+
|                                                     Memory          Disk    |
| Baseline code, static data and system overhead      172.0 MB         0.0 MB |
| BLAS internal memory storage                          0.0 MB         0.0 MB |
| Model and support data                               75.9 MB         0.0 MB |
| Electronic energy minimisation requirements          10.3 MB         0.0 MB |
| Force calculation requirements                        2.7 MB         0.0 MB |
| Stress calculation requirements                       2.7 MB         0.0 MB |
|                                               ----------------------------- |
| Approx. total storage required per process          258.2 MB         0.0 MB |
|                                                                             |
| Requirements will fluctuate during execution and may exceed these estimates |
+-----------------------------------------------------------------------------+
Calculating finite basis set correction with  3 cut-off energies.
Calculating total energy with cut-off of  590.000 eV.
------------------------------------------------------------------------ <-- SCF
SCF loop      Energy           Fermi           Energy gain       Timer   <-- SCF
                               energy          per atom          (sec)   <-- SCF
------------------------------------------------------------------------ <-- SCF
Initial  -1.41297331E+003  0.00000000E+000                        15.53  <-- SCF
      1  -1.67015871E+003  8.77624897E+000   1.28592698E+002      15.98  <-- SCF
      2  -1.70349757E+003  6.98174436E+000   1.66694343E+001      16.36  <-- SCF
      3  -1.70417968E+003  7.04259999E+000   3.41051479E-001      16.70  <-- SCF
      4  -1.70409685E+003  6.71937595E+000  -4.14138020E-002      17.17  <-- SCF
      5  -1.70408664E+003  7.02513494E+000  -5.10359833E-003      17.62  <-- SCF
      6  -1.70407229E+003  6.88543240E+000  -7.17661881E-003      18.06  <-- SCF
      7  -1.70407263E+003  6.89653714E+000   1.68606277E-004      18.49  <-- SCF
      8  -1.70407272E+003  6.89362187E+000   4.53946358E-005      18.82  <-- SCF
      9  -1.70407272E+003  6.89277948E+000   3.30886739E-006      19.12  <-- SCF
     10  -1.70413494E+003  6.81277163E+000   3.11094457E-002      19.41  <-- SCF
     11  -1.70418592E+003  6.69493833E+000   2.54905037E-002      19.86  <-- SCF
     12  -1.70419871E+003  6.76131805E+000   6.39114919E-003      20.28  <-- SCF
     13  -1.70419999E+003  6.71024267E+000   6.41048096E-004      20.72  <-- SCF
     14  -1.70420064E+003  6.72383199E+000   3.27500603E-004      21.15  <-- SCF
     15  -1.70420079E+003  6.72352852E+000   7.38357668E-005      21.55  <-- SCF
     16  -1.70420083E+003  6.72320761E+000   1.75779997E-005      21.85  <-- SCF
     17  -1.70420083E+003  6.72305498E+000   2.00244807E-006      22.14  <-- SCF
     18  -1.70420083E+003  6.72305744E+000   2.44123872E-007      22.43  <-- SCF
------------------------------------------------------------------------ <-- SCF
 
Integrated Spin Density     =    0.192505E-03 hbar/2                        
Integrated |Spin Density|   =    0.335474E-03 hbar/2                        
 
Final energy, E             =  -1704.190320479     eV
Final free energy (E-TS)    =  -1704.200830609     eV
(energies not corrected for finite basis set)
 
NB est. 0K energy (E-0.5TS)      =  -1704.195575544     eV
 
Calculating total energy with cut-off of  595.000 eV.
------------------------------------------------------------------------ <-- SCF
SCF loop      Energy           Fermi           Energy gain       Timer   <-- SCF
                               energy          per atom          (sec)   <-- SCF
------------------------------------------------------------------------ <-- SCF
Initial  -1.70419032E+003  0.00000000E+000                        22.67  <-- SCF
      1  -1.70420085E+003  6.72305345E+000   5.26341550E-003      22.98  <-- SCF
      2  -1.70420085E+003  6.72305344E+000   1.26638447E-008      23.27  <-- SCF
      3  -1.70420085E+003  6.72308801E+000   7.10256121E-009      23.57  <-- SCF
      4  -1.70420085E+003  6.72304811E+000   2.21973769E-009      23.87  <-- SCF
------------------------------------------------------------------------ <-- SCF
 
Integrated Spin Density     =    0.667219E-04 hbar/2                        
Integrated |Spin Density|   =    0.971133E-04 hbar/2                        
 
Final energy, E             =  -1704.190337490     eV
Final free energy (E-TS)    =  -1704.200847380     eV
(energies not corrected for finite basis set)
 
NB est. 0K energy (E-0.5TS)      =  -1704.195592435     eV
 
Calculating total energy with cut-off of  600.000 eV.
------------------------------------------------------------------------ <-- SCF
SCF loop      Energy           Fermi           Energy gain       Timer   <-- SCF
                               energy          per atom          (sec)   <-- SCF
------------------------------------------------------------------------ <-- SCF
Initial  -1.70419034E+003  0.00000000E+000                        24.11  <-- SCF
      1  -1.70420086E+003  6.72312968E+000   5.26284466E-003      24.41  <-- SCF
      2  -1.70420086E+003  6.72312968E+000   4.26913532E-009      24.70  <-- SCF
      3  -1.70420086E+003  6.72297843E+000   2.56998853E-009      25.00  <-- SCF
      4  -1.70420086E+003  6.72306856E+000  -2.95533213E-009      25.29  <-- SCF
------------------------------------------------------------------------ <-- SCF
 
Integrated Spin Density     =    0.280688E-04 hbar/2                        
Integrated |Spin Density|   =    0.399881E-04 hbar/2                        
 
Final energy, E             =  -1704.190353207     eV
Final free energy (E-TS)    =  -1704.200863186     eV
(energies not corrected for finite basis set)
 
NB est. 0K energy (E-0.5TS)      =  -1704.195608197     eV
 
 For future reference: finite basis dEtot/dlog(Ecut) =      -0.001967eV
 Total energy corrected for finite basis set =   -1704.200863 eV

 ******************* Unconstrained Forces *******************
 *                                                          *
 *               Cartesian components (eV/A)                *
 * -------------------------------------------------------- *
 *                         x            y            z      *
 *                                                          *
 * Al              1      0.08921      0.08921      0.10378 *
 * Ti              1     -0.08921     -0.08921     -0.10378 *
 *                                                          *
 ************************************************************

 ******************** Constrained Forces ********************
 *                                                          *
 *               Cartesian components (eV/A)                *
 * -------------------------------------------------------- *
 *                         x            y            z      *
 *                                                          *
 * Al              1      0.08921      0.08921      0.10378 *
 * Ti              1     -0.08921     -0.08921     -0.10378 *
 *                                                          *
 ************************************************************

 ***************** Stress Tensor *****************
 *                                               *
 *          Cartesian components (GPa)           *
 * --------------------------------------------- *
 *             x             y             z     *
 *                                               *
 *  x      9.553368     -0.016079     -0.040573  *
 *  y     -0.016079      9.553368     -0.040573  *
 *  z     -0.040573     -0.040573      8.895713  *
 *                                               *
 *  Pressure:   -9.3341                          *
 *                                               *
 *************************************************

 Pseudo atomic calculation performed for Al 3s2 3p1

 Converged in 15 iterations to a total energy of -105.5952 eV


 Pseudo atomic calculation performed for Ti 3s2 3p6 3d2 4s2

 Converged in 31 iterations to a total energy of -1585.9998 eV

Charge spilling parameter for spin component 1 = 0.24%
Charge spilling parameter for spin component 2 = 0.24%

     Atomic Populations (Mulliken)
     -----------------------------
Species          Ion     s      p      d      f     Total  Charge (e)  Spin (hbar/2)
==================================================================================
  Al              1     1.00   2.10   0.00   0.00   3.10    -0.10        0.00
  Ti              1     2.32   6.74   2.84   0.00  11.90     0.10        0.00
==================================================================================

                 Bond                   Population        Spin       Length (A)
================================================================================
              Al 1 -- Ti 1                   0.68         0.00          2.83699
================================================================================

 
 A BibTeX formatted list of references used in this run has been written to 
 castep.bib
 
Initialisation time =     12.37 s
Calculation time    =     14.77 s
Finalisation time   =      0.03 s
Total time          =     27.17 s
Peak Memory Use     = 614024 kB
  
Overall parallel efficiency rating: Mediocre (53%)                              
  
Data was distributed by:-
k-point (48-way); efficiency rating: Mediocre (54%)                             
  
Parallel notes:
1) Calculation only took 27.1 s, so efficiency estimates may be inaccurate.     
 +-------------------------------------------------+
 |                                                 |
 |      CCC   AA    SSS  TTTTT  EEEEE  PPPP        |
 |     C     A  A  S       T    E      P   P       |
 |     C     AAAA   SS     T    EEE    PPPP        |
 |     C     A  A     S    T    E      P           |
 |      CCC  A  A  SSS     T    EEEEE  P           |
 |                                                 |
 +-------------------------------------------------+
 |                                                 |
 | Welcome to Academic Release CASTEP version 17.21|          
 | Ab Initio Total Energy Program                  |
 |                                                 |
 | Authors:                                        |
 | M. Segall, M. Probert, C. Pickard, P. Hasnip,   |
 | S. Clark, K. Refson, J. R. Yates, M. Payne      |
 |                                                 |
 | Contributors:                                   |
 | P. Lindan, P. Haynes, J. White, V. Milman,      |
 | N. Govind, M. Gibson, P. Tulip, V. Cocula,      |
 | B. Montanari, D. Quigley, M. Glover,            |
 | L. Bernasconi, A. Perlov, M. Plummer,           |
 | E. McNellis, J. Meyer, J. Gale, D. Jochym       |
 | J. Aarons, B. Walker, R. Gillen, D. Jones       |
 | T. Green, I. J. Bush, C. J. Armstrong,          |
 | E. J. Higgins, E. L. Brown, M. S. McFly,        |
 | J. Wilkins, B-C. Shih, P. J. P. Byrne           |
 |                                                 |
 | Copyright (c) 2000 - 2017                       |
 |                                                 |
 |     Distributed under the terms of an           |
 |     Agreement between the United Kingdom        |
 |     Car-Parrinello (UKCP) Consortium,           |
 |     Daresbury Laboratory and Accelrys, Inc.     |
 |                                                 |
 | Please cite                                     |
 |                                                 |
 |     "First principles methods using CASTEP"     |
 |                                                 |
 |         Zeitschrift fuer Kristallographie       |
 |           220(5-6) pp. 567-570 (2005)           |
 |                                                 |
 | S. J. Clark, M. D. Segall, C. J. Pickard,       |
 | P. J. Hasnip, M. J. Probert, K. Refson,         |
 | M. C. Payne                                     |
 |                                                 |
 |       in all publications arising from          |
 |              your use of CASTEP                 |
 |                                                 |
 +-------------------------------------------------+


 Compiled for linux_x86_64_gfortran6.0-XT on Fri, 21 Jul 2017 10:20:05 +0100
 from code version 056e886bd5a1+ Castep172_branch Mon, 15 May 2017 14:45:35 +0100
 Compiler: GNU Fortran 6.3.0; Optimisation: fast
 MATHLIBS: Intel MKL(2017.0.0) (LAPACK version 3.6.0)
 FFT Lib : fftw3 version commercial-fftw-3.3.4-sse2-avx
 Fundamental constants values: CODATA 2010

 Run started: Thu, 19 Sep 2019 21:20:06 +0100

 Atomic calculation performed for Al: 1s2 2s2 2p6 3s2 3p1

 Converged in 55 iterations to an ae energy of -6578.725 eV

   ============================================================                
   | Pseudopotential Report - Date of generation 19-09-2019   |                
   ------------------------------------------------------------                
   | Element: Al Ionic charge:  3.00 Level of theory: LDA     |                
   | Atomic Solver: Koelling-Harmon                           |                
   |                                                          |                
   |               Reference Electronic Structure             |                
   |         Orbital         Occupation         Energy        |                
   |            3s              2.000           -0.288        |                
   |            3p              1.000           -0.102        |                
   |                                                          |                
   |                 Pseudopotential Definition               |                
   |        Beta     l      e      Rc     scheme   norm       |                
   |          1      0   -0.288   2.192     qc      0         |                
   |          2      0    0.250   2.192     qc      0         |                
   |          3      1   -0.102   2.192     qc      0         |                
   |          4      1    0.250   2.192     qc      0         |                
   |          5      2    0.000   2.000     qc      0         |                
   |          6      2    0.250   2.000     qc      0         |                
   |         loc     3    0.000   2.192     pn      0         |                
   |                                                          |                
   | Augmentation charge Rinner = 1.398                       |                
   | Partial core correction Rc = 1.398                       |                
   ------------------------------------------------------------                
   | "3|2.2|2.2|1.4|4|5|5|30:31:32U2U2"                       |                
   ------------------------------------------------------------                
   |      Author: Chris J. Pickard, Cambridge University      |                
   ============================================================                

 Atomic calculation performed for Ti: 1s2 2s2 2p6 3s2 3p6 3d2 4s2

 Converged in 78 iterations to an ae energy of -23176.516 eV

   ============================================================                
   | Pseudopotential Report - Date of generation 19-09-2019   |                
   ------------------------------------------------------------                
   | Element: Ti Ionic charge: 12.00 Level of theory: LDA     |                
   | Atomic Solver: Koelling-Harmon                           |                
   |                                                          |                
   |               Reference Electronic Structure             |                
   |         Orbital         Occupation         Energy        |                
   |            3s              2.000           -2.288        |                
   |            3p              6.000           -1.425        |                
   |            4s              2.000           -0.169        |                
   |            3d              2.000           -0.164        |                
   |                                                          |                
   |                 Pseudopotential Definition               |                
   |        Beta     l      e      Rc     scheme   norm       |                
   |          1      0   -2.288   1.793     qc      0         |                
   |          2      0   -0.169   1.793     qc      0         |                
   |          3      0    0.250   1.793     qc      0         |                
   |          4      1   -1.425   1.793     qc      0         |                
   |          5      1    0.250   1.793     qc      0         |                
   |          6      2   -0.164   1.793     qc      0         |                
   |          7      2    0.250   1.793     qc      0         |                
   |         loc     3    0.000   1.793     pn      0         |                
   |                                                          |                
   | Augmentation charge Rinner = 1.263                       |                
   | Partial core correction Rc = 1.263                       |                
   ------------------------------------------------------------                
   | "3|1.8|9|10|11|30U:40:31:32(qc=5.5)"                     |                
   ------------------------------------------------------------                
   |      Author: Chris J. Pickard, Cambridge University      |                
   ============================================================                

 Pseudo atomic calculation performed for Al 3s2 3p1

 Converged in 15 iterations to a total energy of -105.5952 eV


 Pseudo atomic calculation performed for Ti 3s2 3p6 3d2 4s2

 Converged in 31 iterations to a total energy of -1585.9998 eV

 Calculation parallelised over 48 processes.
 Data is distributed by k-point(48-way)

 ************************************ Title ************************************
 

 ***************************** General Parameters ******************************
  
 output verbosity                               : normal  (1)
 write checkpoint data to                       : castep.check
 type of calculation                            : single point energy
 stress calculation                             : on
 density difference calculation                 : off
 electron localisation func (ELF) calculation   : off
 Hirshfeld analysis                             : off
 unlimited duration calculation
 timing information                             : on
 memory usage estimate                          : on
 write final potential to formatted file        : off
 write final density to formatted file          : off
 write BibTeX reference list                    : on
 write OTFG pseudopotential files               : on
 write electrostatic potential file             : on
 write bands file                               : on
 checkpoint writing                             : off
  
 output         length unit                     : A
 output           mass unit                     : amu
 output           time unit                     : ps
 output         charge unit                     : e
 output           spin unit                     : hbar/2
 output         energy unit                     : eV
 output          force unit                     : eV/A
 output       velocity unit                     : A/ps
 output       pressure unit                     : GPa
 output     inv_length unit                     : 1/A
 output      frequency unit                     : cm-1
 output force constant unit                     : eV/A**2
 output         volume unit                     : A**3
 output   IR intensity unit                     : (D/A)**2/amu
 output         dipole unit                     : D
 output         efield unit                     : eV/A/e
 output        entropy unit                     : J/mol/K
  
 wavefunctions paging                           : none
 random number generator seed                   : randomised (212006728)
 data distribution                              : optimal for this architecture
 optimization strategy                          : maximize speed(+++)

 *********************** Exchange-Correlation Parameters ***********************
  
 using functional                               : Local Density Approximation
 relativistic treatment                         : Koelling-Harmon
 DFT+D: Semi-empirical dispersion correction    : off

 ************************* Pseudopotential Parameters **************************
  
 pseudopotential representation                 : reciprocal space
 <beta|phi> representation                      : reciprocal space
 spin-orbit coupling                            : off

 **************************** Basis Set Parameters *****************************
  
 plane wave basis set cut-off                   :   600.0000   eV
 size of standard grid                          :     1.7500
 size of   fine   gmax                          :    21.9610   1/A
 finite basis set correction                    : automatic
 number of sample energies                      :          3
           sample  spacing                      :     5.0000   eV

 **************************** Electronic Parameters ****************************
  
 number of  electrons                           :  15.00    
 net charge of system                           :  0.000    
 net spin   of system                           :  1.000    
 number of  up  spins                           :  8.000    
 number of down spins                           :  7.000    
 treating system as spin-polarized
 number of bands                                :         12

 ********************* Electronic Minimization Parameters **********************
  
 Method: Treating system as metallic with density mixing treatment of electrons,
         and number of  SD  steps               :          1
         and number of  CG  steps               :          4
  
 total energy / atom convergence tol.           : 0.1000E-04   eV
 eigen-energy convergence tolerance             : 0.1000E-05   eV
 max force / atom convergence tol.              : ignored
 convergence tolerance window                   :          3   cycles
 max. number of SCF cycles                      :        250
 number of fixed-spin iterations                :         10
 smearing scheme                                : Gaussian
 smearing width                                 : 0.1000       eV
 Fermi energy convergence tolerance             : 0.2721E-13   eV
 periodic dipole correction                     : NONE

 ************************** Density Mixing Parameters **************************
  
 density-mixing scheme                          : Pulay
 max. length of mixing history                  :         20
 charge density mixing amplitude                : 0.8000    
   spin density mixing amplitude                :  2.000    
 cut-off energy for mixing                      :  600.0       eV

 *********************** Population Analysis Parameters ************************
  
 Population analysis with cutoff                :  3.000       A

 *******************************************************************************
  

                           -------------------------------
                                      Unit Cell
                           -------------------------------
        Real Lattice(A)                      Reciprocal Lattice(1/A)
   2.8241050   0.0000000   0.0000000        2.2248413   0.0000000   0.0000000
   0.0000000   2.8241050   0.0000000        0.0000000   2.2248413   0.0000000
   0.0000000   0.0000000   4.0647120        0.0000000   0.0000000   1.5457886

                       Lattice parameters(A)       Cell Angles
                    a =    2.824105          alpha =   90.000000
                    b =    2.824105          beta  =   90.000000
                    c =    4.064712          gamma =   90.000000

                       Current cell volume =   32.418391       A**3
                                   density =    2.308830   AMU/A**3
                                           =    3.833901     g/cm^3

                           -------------------------------
                                     Cell Contents
                           -------------------------------
                         Total number of ions in cell =    2
                      Total number of species in cell =    2
                        Max number of any one species =    1

            xxxxxxxxxxxxxxxxxxxxxxxxxxxxxxxxxxxxxxxxxxxxxxxxxxxxxxxxxxxx
            x  Element    Atom        Fractional coordinates of atoms  x
            x            Number           u          v          w      x
            x----------------------------------------------------------x
            x  Al           1         0.000000   0.000000   0.000000   x 
            x  Ti           1         0.500000   0.500000   0.500000   x 
            xxxxxxxxxxxxxxxxxxxxxxxxxxxxxxxxxxxxxxxxxxxxxxxxxxxxxxxxxxxx


                         No user defined ionic velocities

                           -------------------------------
                                   Details of Species
                           -------------------------------

                               Mass of species in AMU
                                    Al   26.9815400
                                    Ti   47.8670000

                          Electric Quadrupole Moment (Barn)
                                    Al    0.1466000 Isotope 27
                                    Ti    0.3020000 Isotope 47

                          Files used for pseudopotentials:
                                    Al 3|2.2|2.2|1.4|4|5|5|30:31:32U2U2
                                    Ti 3|1.8|9|10|11|30U:40:31:32(qc=5.5)

                           -------------------------------
                              k-Points For BZ Sampling
                           -------------------------------
                       MP grid size for SCF calculation is  9  9  7
                            with an offset of   0.000  0.000  0.000
                       Number of kpoints used =           284

                           -------------------------------
                               Symmetry and Constraints
                           -------------------------------

                      Maximum deviation from symmetry =  0.00000         ANG

                      Number of symmetry operations   =           1
                      Number of ionic constraints     =           3
                      Point group of crystal =     1: C1, 1, 1
                      Space group of crystal =   123: P4/mmm, -P 4 2

             Set iprint > 1 for details on symmetry rotations/translations

                         Centre of mass is constrained
             Set iprint > 1 for details of linear ionic constraints

                         Number of cell constraints= 0
                         Cell constraints are:  1 2 3 4 5 6

                         External pressure/stress (GPa)
                          0.00000   0.00000   0.00000
                                    0.00000   0.00000
                                              0.00000
  
+---------------- MEMORY AND SCRATCH DISK ESTIMATES PER PROCESS --------------+
|                                                     Memory          Disk    |
| Baseline code, static data and system overhead      172.0 MB         0.0 MB |
| BLAS internal memory storage                          0.0 MB         0.0 MB |
| Model and support data                               75.8 MB         0.0 MB |
| Electronic energy minimisation requirements          10.0 MB         0.0 MB |
| Force calculation requirements                        2.7 MB         0.0 MB |
| Stress calculation requirements                       2.7 MB         0.0 MB |
|                                               ----------------------------- |
| Approx. total storage required per process          257.8 MB         0.0 MB |
|                                                                             |
| Requirements will fluctuate during execution and may exceed these estimates |
+-----------------------------------------------------------------------------+
Calculating finite basis set correction with  3 cut-off energies.
Calculating total energy with cut-off of  590.000 eV.
------------------------------------------------------------------------ <-- SCF
SCF loop      Energy           Fermi           Energy gain       Timer   <-- SCF
                               energy          per atom          (sec)   <-- SCF
------------------------------------------------------------------------ <-- SCF
Initial  -1.41494774E+003  0.00000000E+000                        15.44  <-- SCF
      1  -1.67016123E+003  8.99338251E+000   1.27606746E+002      15.88  <-- SCF
      2  -1.70354895E+003  7.25221200E+000   1.66938581E+001      16.25  <-- SCF
      3  -1.70422410E+003  7.31487763E+000   3.37572848E-001      16.58  <-- SCF
      4  -1.70413741E+003  7.00822847E+000  -4.33411506E-002      17.04  <-- SCF
      5  -1.70413060E+003  7.30161784E+000  -3.40909318E-003      17.47  <-- SCF
      6  -1.70411694E+003  7.16327704E+000  -6.82792442E-003      17.91  <-- SCF
      7  -1.70411725E+003  7.17443398E+000   1.56538983E-004      18.33  <-- SCF
      8  -1.70411734E+003  7.17130253E+000   4.27814766E-005      18.66  <-- SCF
      9  -1.70411735E+003  7.17048874E+000   3.39021646E-006      18.95  <-- SCF
     10  -1.70418620E+003  7.08478734E+000   3.44249385E-002      19.25  <-- SCF
     11  -1.70423884E+003  6.96479777E+000   2.63200655E-002      19.68  <-- SCF
     12  -1.70425156E+003  7.03181256E+000   6.36254014E-003      20.10  <-- SCF
     13  -1.70425258E+003  6.98222885E+000   5.08511938E-004      20.52  <-- SCF
     14  -1.70425320E+003  6.99564578E+000   3.12520394E-004      20.95  <-- SCF
     15  -1.70425334E+003  6.99529670E+000   7.04290069E-005      21.34  <-- SCF
     16  -1.70425338E+003  6.99497381E+000   1.84892429E-005      21.62  <-- SCF
     17  -1.70425338E+003  6.99482587E+000   2.10017647E-006      21.91  <-- SCF
     18  -1.70425339E+003  6.99482439E+000   2.56961440E-007      22.20  <-- SCF
------------------------------------------------------------------------ <-- SCF
 
Integrated Spin Density     =    0.186437E-03 hbar/2                        
Integrated |Spin Density|   =    0.317533E-03 hbar/2                        
 
Final energy, E             =  -1704.242819985     eV
Final free energy (E-TS)    =  -1704.253385129     eV
(energies not corrected for finite basis set)
 
NB est. 0K energy (E-0.5TS)      =  -1704.248102557     eV
 
Calculating total energy with cut-off of  595.000 eV.
------------------------------------------------------------------------ <-- SCF
SCF loop      Energy           Fermi           Energy gain       Timer   <-- SCF
                               energy          per atom          (sec)   <-- SCF
------------------------------------------------------------------------ <-- SCF
Initial  -1.70424282E+003  0.00000000E+000                        22.43  <-- SCF
      1  -1.70425340E+003  6.99480722E+000   5.29038971E-003      22.73  <-- SCF
      2  -1.70425340E+003  6.99480722E+000   1.17168236E-008      23.02  <-- SCF
      3  -1.70425340E+003  6.99486806E+000   7.11725570E-009      23.31  <-- SCF
      4  -1.70425340E+003  6.99481633E+000   1.42149832E-009      23.60  <-- SCF
------------------------------------------------------------------------ <-- SCF
 
Integrated Spin Density     =    0.623410E-04 hbar/2                        
Integrated |Spin Density|   =    0.853701E-04 hbar/2                        
 
Final energy, E             =  -1704.242835950     eV
Final free energy (E-TS)    =  -1704.253400832     eV
(energies not corrected for finite basis set)
 
NB est. 0K energy (E-0.5TS)      =  -1704.248118391     eV
 
Calculating total energy with cut-off of  600.000 eV.
------------------------------------------------------------------------ <-- SCF
SCF loop      Energy           Fermi           Energy gain       Timer   <-- SCF
                               energy          per atom          (sec)   <-- SCF
------------------------------------------------------------------------ <-- SCF
Initial  -1.70424284E+003  0.00000000E+000                        23.83  <-- SCF
      1  -1.70425342E+003  6.99487823E+000   5.29037290E-003      24.13  <-- SCF
      2  -1.70425342E+003  6.99487823E+000   4.15119273E-009      24.42  <-- SCF
      3  -1.70425342E+003  6.99476863E+000   1.98162898E-009      24.72  <-- SCF
      4  -1.70425342E+003  6.99483413E+000  -1.45881458E-009      25.01  <-- SCF
------------------------------------------------------------------------ <-- SCF
 
Integrated Spin Density     =    0.265542E-04 hbar/2                        
Integrated |Spin Density|   =    0.365538E-04 hbar/2                        
 
Final energy, E             =  -1704.242851707     eV
Final free energy (E-TS)    =  -1704.253416705     eV
(energies not corrected for finite basis set)
 
NB est. 0K energy (E-0.5TS)      =  -1704.248134206     eV
 
 For future reference: finite basis dEtot/dlog(Ecut) =      -0.001887eV
 Total energy corrected for finite basis set =   -1704.253417 eV

 ******************* Unconstrained Forces *******************
 *                                                          *
 *               Cartesian components (eV/A)                *
 * -------------------------------------------------------- *
 *                         x            y            z      *
 *                                                          *
 * Al              1      0.00000      0.00000      0.00000 *
 * Ti              1     -0.00000     -0.00000     -0.00000 *
 *                                                          *
 ************************************************************

 ******************** Constrained Forces ********************
 *                                                          *
 *               Cartesian components (eV/A)                *
 * -------------------------------------------------------- *
 *                         x            y            z      *
 *                                                          *
 * Al              1      0.00000      0.00000      0.00000 *
 * Ti              1     -0.00000     -0.00000     -0.00000 *
 *                                                          *
 ************************************************************

 ***************** Stress Tensor *****************
[...]
   |                                                          |                
   | Augmentation charge Rinner = 1.263                       |                
   | Partial core correction Rc = 1.263                       |                
   ------------------------------------------------------------                
   | "3|1.8|9|10|11|30U:40:31:32(qc=5.5)"                     |                
   ------------------------------------------------------------                
   |      Author: Chris J. Pickard, Cambridge University      |                
   ============================================================                

 Pseudo atomic calculation performed for Al 3s2 3p1

 Converged in 15 iterations to a total energy of -105.5952 eV


 Pseudo atomic calculation performed for Ti 3s2 3p6 3d2 4s2

 Converged in 31 iterations to a total energy of -1585.9998 eV

 Calculation parallelised over 48 processes.
 Data is distributed by k-point(48-way)

 ************************************ Title ************************************
 

 ***************************** General Parameters ******************************
  
 output verbosity                               : normal  (1)
 write checkpoint data to                       : castep.check
 type of calculation                            : single point energy
 stress calculation                             : on
 density difference calculation                 : off
 electron localisation func (ELF) calculation   : off
 Hirshfeld analysis                             : off
 unlimited duration calculation
 timing information                             : on
 memory usage estimate                          : on
 write final potential to formatted file        : off
 write final density to formatted file          : off
 write BibTeX reference list                    : on
 write OTFG pseudopotential files               : on
 write electrostatic potential file             : on
 write bands file                               : on
 checkpoint writing                             : off
  
 output         length unit                     : A
 output           mass unit                     : amu
 output           time unit                     : ps
 output         charge unit                     : e
 output           spin unit                     : hbar/2
 output         energy unit                     : eV
 output          force unit                     : eV/A
 output       velocity unit                     : A/ps
 output       pressure unit                     : GPa
 output     inv_length unit                     : 1/A
 output      frequency unit                     : cm-1
 output force constant unit                     : eV/A**2
 output         volume unit                     : A**3
 output   IR intensity unit                     : (D/A)**2/amu
 output         dipole unit                     : D
 output         efield unit                     : eV/A/e
 output        entropy unit                     : J/mol/K
  
 wavefunctions paging                           : none
 random number generator seed                   : randomised (213603428)
 data distribution                              : optimal for this architecture
 optimization strategy                          : maximize speed(+++)

 *********************** Exchange-Correlation Parameters ***********************
  
 using functional                               : Local Density Approximation
 relativistic treatment                         : Koelling-Harmon
 DFT+D: Semi-empirical dispersion correction    : off

 ************************* Pseudopotential Parameters **************************
  
 pseudopotential representation                 : reciprocal space
 <beta|phi> representation                      : reciprocal space
 spin-orbit coupling                            : off

 **************************** Basis Set Parameters *****************************
  
 plane wave basis set cut-off                   :   600.0000   eV
 size of standard grid                          :     1.7500
 size of   fine   gmax                          :    21.9610   1/A
 finite basis set correction                    : automatic
 number of sample energies                      :          3
           sample  spacing                      :     5.0000   eV

 **************************** Electronic Parameters ****************************
  
 number of  electrons                           :  15.00    
 net charge of system                           :  0.000    
 net spin   of system                           :  1.000    
 number of  up  spins                           :  8.000    
 number of down spins                           :  7.000    
 treating system as spin-polarized
 number of bands                                :         12

 ********************* Electronic Minimization Parameters **********************
  
 Method: Treating system as metallic with density mixing treatment of electrons,
         and number of  SD  steps               :          1
         and number of  CG  steps               :          4
  
 total energy / atom convergence tol.           : 0.1000E-04   eV
 eigen-energy convergence tolerance             : 0.1000E-05   eV
 max force / atom convergence tol.              : ignored
 convergence tolerance window                   :          3   cycles
 max. number of SCF cycles                      :        250
 number of fixed-spin iterations                :         10
 smearing scheme                                : Gaussian
 smearing width                                 : 0.1000       eV
 Fermi energy convergence tolerance             : 0.2721E-13   eV
 periodic dipole correction                     : NONE

 ************************** Density Mixing Parameters **************************
  
 density-mixing scheme                          : Pulay
 max. length of mixing history                  :         20
 charge density mixing amplitude                : 0.8000    
   spin density mixing amplitude                :  2.000    
 cut-off energy for mixing                      :  600.0       eV

 *********************** Population Analysis Parameters ************************
  
 Population analysis with cutoff                :  3.000       A

 *******************************************************************************
  

                           -------------------------------
                                      Unit Cell
                           -------------------------------
        Real Lattice(A)                      Reciprocal Lattice(1/A)
   2.8186360   0.0000000   0.0000000        2.2291581   0.0000000   0.0000000
   0.0000000   2.7633680   0.0276340        0.0000000   2.2739692  -0.0227397
   0.0000000   0.0398440   3.9844040        0.0000000  -0.0157712   1.5771025

                       Lattice parameters(A)       Cell Angles
                    a =    2.818636          alpha =   88.854117
                    b =    2.763506          beta  =   90.000000
                    c =    3.984603          gamma =   90.000000

                       Current cell volume =   31.031135       A**3
                                   density =    2.412047   AMU/A**3
                                           =    4.005297     g/cm^3

                           -------------------------------
                                     Cell Contents
                           -------------------------------
                         Total number of ions in cell =    2
                      Total number of species in cell =    2
                        Max number of any one species =    1

            xxxxxxxxxxxxxxxxxxxxxxxxxxxxxxxxxxxxxxxxxxxxxxxxxxxxxxxxxxxx
            x  Element    Atom        Fractional coordinates of atoms  x
            x            Number           u          v          w      x
            x----------------------------------------------------------x
            x  Al           1         0.000000   0.000000   0.000000   x 
            x  Ti           1         0.500000   0.500000   0.500000   x 
            xxxxxxxxxxxxxxxxxxxxxxxxxxxxxxxxxxxxxxxxxxxxxxxxxxxxxxxxxxxx


                         No user defined ionic velocities

                           -------------------------------
                                   Details of Species
                           -------------------------------

                               Mass of species in AMU
                                    Al   26.9815400
                                    Ti   47.8670000

                          Electric Quadrupole Moment (Barn)
                                    Al    0.1466000 Isotope 27
                                    Ti    0.3020000 Isotope 47

                          Files used for pseudopotentials:
                                    Al 3|2.2|2.2|1.4|4|5|5|30:31:32U2U2
                                    Ti 3|1.8|9|10|11|30U:40:31:32(qc=5.5)

                           -------------------------------
                              k-Points For BZ Sampling
                           -------------------------------
                       MP grid size for SCF calculation is  9 10  7
                            with an offset of   0.000  0.000  0.000
                       Number of kpoints used =           315

                           -------------------------------
                               Symmetry and Constraints
                           -------------------------------

                      Maximum deviation from symmetry =  0.00000         ANG

                      Number of symmetry operations   =           1
                      Number of ionic constraints     =           3
                      Point group of crystal =     1: C1, 1, 1
                      Space group of crystal =    10: P2/m, -P 2y

             Set iprint > 1 for details on symmetry rotations/translations

                         Centre of mass is constrained
             Set iprint > 1 for details of linear ionic constraints

                         Number of cell constraints= 0
                         Cell constraints are:  1 2 3 4 5 6

                         External pressure/stress (GPa)
                          0.00000   0.00000   0.00000
                                    0.00000   0.00000
                                              0.00000
  
+---------------- MEMORY AND SCRATCH DISK ESTIMATES PER PROCESS --------------+
|                                                     Memory          Disk    |
| Baseline code, static data and system overhead      172.0 MB         0.0 MB |
| BLAS internal memory storage                          0.0 MB         0.0 MB |
| Model and support data                               76.2 MB         0.0 MB |
| Electronic energy minimisation requirements          10.5 MB         0.0 MB |
| Force calculation requirements                        2.7 MB         0.0 MB |
| Stress calculation requirements                       2.7 MB         0.0 MB |
|                                               ----------------------------- |
| Approx. total storage required per process          258.6 MB         0.0 MB |
|                                                                             |
| Requirements will fluctuate during execution and may exceed these estimates |
+-----------------------------------------------------------------------------+
Calculating finite basis set correction with  3 cut-off energies.
Calculating total energy with cut-off of  590.000 eV.
------------------------------------------------------------------------ <-- SCF
SCF loop      Energy           Fermi           Energy gain       Timer   <-- SCF
                               energy          per atom          (sec)   <-- SCF
------------------------------------------------------------------------ <-- SCF
Initial  -1.41567766E+003  0.00000000E+000                        15.49  <-- SCF
      1  -1.67055742E+003  9.22979328E+000   1.27439881E+002      15.98  <-- SCF
      2  -1.70360426E+003  7.66656505E+000   1.65234183E+001      16.40  <-- SCF
      3  -1.70423427E+003  7.73739784E+000   3.15004036E-001      16.80  <-- SCF
      4  -1.70414221E+003  7.45286915E+000  -4.60304582E-002      17.30  <-- SCF
      5  -1.70414000E+003  7.72105265E+000  -1.10550191E-003      17.80  <-- SCF
      6  -1.70412791E+003  7.58869319E+000  -6.04479201E-003      18.28  <-- SCF
      7  -1.70412805E+003  7.60137677E+000   7.05153426E-005      18.76  <-- SCF
      8  -1.70412814E+003  7.59803931E+000   4.38511267E-005      19.13  <-- SCF
      9  -1.70412814E+003  7.59725267E+000   2.98818784E-006      19.46  <-- SCF
     10  -1.70421766E+003  7.47999509E+000   4.47594234E-002      19.78  <-- SCF
     11  -1.70426672E+003  7.37739308E+000   2.45302800E-002      20.27  <-- SCF
     12  -1.70428117E+003  7.43284632E+000   7.22338374E-003      20.74  <-- SCF
     13  -1.70428232E+003  7.39106117E+000   5.74846924E-004      21.22  <-- SCF
     14  -1.70428280E+003  7.40415138E+000   2.38578437E-004      21.71  <-- SCF
     15  -1.70428290E+003  7.40319321E+000   5.38728306E-005      22.12  <-- SCF
     16  -1.70428292E+003  7.40298945E+000   1.00306827E-005      22.44  <-- SCF
     17  -1.70428293E+003  7.40292948E+000   9.37526092E-007      22.76  <-- SCF
     18  -1.70428293E+003  7.40293747E+000   1.10259314E-007      23.08  <-- SCF
------------------------------------------------------------------------ <-- SCF
 
Integrated Spin Density     =    0.915391E-04 hbar/2                        
Integrated |Spin Density|   =    0.187050E-03 hbar/2                        
 
Final energy, E             =  -1704.273078996     eV
Final free energy (E-TS)    =  -1704.282925267     eV
(energies not corrected for finite basis set)
 
NB est. 0K energy (E-0.5TS)      =  -1704.278002132     eV
 
Calculating total energy with cut-off of  595.000 eV.
------------------------------------------------------------------------ <-- SCF
SCF loop      Energy           Fermi           Energy gain       Timer   <-- SCF
                               energy          per atom          (sec)   <-- SCF
------------------------------------------------------------------------ <-- SCF
Initial  -1.70427308E+003  0.00000000E+000                        23.33  <-- SCF
      1  -1.70428294E+003  7.40293936E+000   4.93123401E-003      23.66  <-- SCF
      2  -1.70428294E+003  7.40293936E+000   8.20716131E-009      23.99  <-- SCF
      3  -1.70428294E+003  7.40295230E+000   3.82182352E-009      24.31  <-- SCF
      4  -1.70428294E+003  7.40293201E+000   1.05229932E-009      24.64  <-- SCF
------------------------------------------------------------------------ <-- SCF
 
Integrated Spin Density     =    0.307360E-04 hbar/2                        
Integrated |Spin Density|   =    0.458698E-04 hbar/2                        
 
Final energy, E             =  -1704.273095214     eV
Final free energy (E-TS)    =  -1704.282941502     eV
(energies not corrected for finite basis set)
 
NB est. 0K energy (E-0.5TS)      =  -1704.278018358     eV
 
Calculating total energy with cut-off of  600.000 eV.
------------------------------------------------------------------------ <-- SCF
SCF loop      Energy           Fermi           Energy gain       Timer   <-- SCF
                               energy          per atom          (sec)   <-- SCF
------------------------------------------------------------------------ <-- SCF
Initial  -1.70427310E+003  0.00000000E+000                        24.88  <-- SCF
      1  -1.70428296E+003  7.40298154E+000   4.93077172E-003      25.22  <-- SCF
      2  -1.70428296E+003  7.40298154E+000   3.98887664E-009      25.55  <-- SCF
      3  -1.70428296E+003  7.40289696E+000   1.27726032E-009      25.86  <-- SCF
      4  -1.70428296E+003  7.40294643E+000  -8.37972486E-010      26.19  <-- SCF
------------------------------------------------------------------------ <-- SCF
 
Integrated Spin Density     =    0.823054E-05 hbar/2                        
Integrated |Spin Density|   =    0.120587E-04 hbar/2                        
 
Final energy, E             =  -1704.273110550     eV
Final free energy (E-TS)    =  -1704.282956765     eV
(energies not corrected for finite basis set)
 
NB est. 0K energy (E-0.5TS)      =  -1704.278033657     eV
 
 For future reference: finite basis dEtot/dlog(Ecut) =      -0.001848eV
 Total energy corrected for finite basis set =   -1704.282956 eV

 ******************* Unconstrained Forces *******************
 *                                                          *
 *               Cartesian components (eV/A)                *
 * -------------------------------------------------------- *
 *                         x            y            z      *
 *                                                          *
 * Al              1     -0.00000     -0.00000      0.00000 *
 * Ti              1      0.00000      0.00000     -0.00000 *
 *                                                          *
 ************************************************************

 ******************** Constrained Forces ********************
 *                                                          *
 *               Cartesian components (eV/A)                *
 * -------------------------------------------------------- *
 *                         x            y            z      *
 *                                                          *
 * Al              1     -0.00000     -0.00000      0.00000 *
 * Ti              1      0.00000      0.00000     -0.00000 *
 *                                                          *
 ************************************************************

 ***************** Stress Tensor *****************
 *                                               *
 *          Cartesian components (GPa)           *
 * --------------------------------------------- *
 *             x             y             z     *
 *                                               *
 *  x      3.402062      0.000000     -0.000000  *
 *  y      0.000000      0.370402      2.384905  *
 *  z     -0.000000      2.384905      1.299701  *
 *                                               *
 *  Pressure:   -1.6907                          *
 *                                               *
 *************************************************

 Pseudo atomic calculation performed for Al 3s2 3p1

 Converged in 15 iterations to a total energy of -105.5952 eV


 Pseudo atomic calculation performed for Ti 3s2 3p6 3d2 4s2

 Converged in 31 iterations to a total energy of -1585.9998 eV

Charge spilling parameter for spin component 1 = 0.26%
Charge spilling parameter for spin component 2 = 0.26%

     Atomic Populations (Mulliken)
     -----------------------------
Species          Ion     s      p      d      f     Total  Charge (e)  Spin (hbar/2)
==================================================================================
  Al              1     0.97   2.14   0.00   0.00   3.10    -0.10       -0.00
  Ti              1     2.29   6.73   2.88   0.00  11.90     0.10        0.00
==================================================================================

                 Bond                   Population        Spin       Length (A)
================================================================================
================================================================================

 
 A BibTeX formatted list of references used in this run has been written to 
 castep.bib
 
Initialisation time =     12.26 s
Calculation time    =     15.81 s
Finalisation time   =      0.04 s
Total time          =     28.11 s
Peak Memory Use     = 601620 kB
  
Overall parallel efficiency rating: Mediocre (55%)                              
  
Data was distributed by:-
k-point (48-way); efficiency rating: Mediocre (56%)                             
  
Parallel notes:
1) Calculation only took 28.1 s, so efficiency estimates may be inaccurate.     
