 +-------------------------------------------------+
 |                                                 |
 |      CCC   AA    SSS  TTTTT  EEEEE  PPPP        |
 |     C     A  A  S       T    E      P   P       |
 |     C     AAAA   SS     T    EEE    PPPP        |
 |     C     A  A     S    T    E      P           |
 |      CCC  A  A  SSS     T    EEEEE  P           |
 |                                                 |
 +-------------------------------------------------+
 |                                                 |
 | Welcome to Academic Release CASTEP version 17.21|          
 | Ab Initio Total Energy Program                  |
 |                                                 |
 | Authors:                                        |
 | M. Segall, M. Probert, C. Pickard, P. Hasnip,   |
 | S. Clark, K. Refson, J. R. Yates, M. Payne      |
 |                                                 |
 | Contributors:                                   |
 | P. Lindan, P. Haynes, J. White, V. Milman,      |
 | N. Govind, M. Gibson, P. Tulip, V. Cocula,      |
 | B. Montanari, D. Quigley, M. Glover,            |
 | L. Bernasconi, A. Perlov, M. Plummer,           |
 | E. McNellis, J. Meyer, J. Gale, D. Jochym       |
 | J. Aarons, B. Walker, R. Gillen, D. Jones       |
 | T. Green, I. J. Bush, C. J. Armstrong,          |
 | E. J. Higgins, E. L. Brown, M. S. McFly,        |
 | J. Wilkins, B-C. Shih, P. J. P. Byrne           |
 |                                                 |
 | Copyright (c) 2000 - 2017                       |
 |                                                 |
 |     Distributed under the terms of an           |
 |     Agreement between the United Kingdom        |
 |     Car-Parrinello (UKCP) Consortium,           |
 |     Daresbury Laboratory and Accelrys, Inc.     |
 |                                                 |
 | Please cite                                     |
 |                                                 |
 |     "First principles methods using CASTEP"     |
 |                                                 |
 |         Zeitschrift fuer Kristallographie       |
 |           220(5-6) pp. 567-570 (2005)           |
 |                                                 |
 | S. J. Clark, M. D. Segall, C. J. Pickard,       |
 | P. J. Hasnip, M. J. Probert, K. Refson,         |
 | M. C. Payne                                     |
 |                                                 |
 |       in all publications arising from          |
 |              your use of CASTEP                 |
 |                                                 |
 +-------------------------------------------------+
 
 
 Compiled for linux_x86_64_ifort17 on Fri, 08 Dec 2017 17:04:03 +0000
 from code version 
 056e886bd5a1+ Castep172_branch Mon, 15 May 2017 14:45:35 +0100
 Compiler: Intel Fortran 17.0.4.196; Optimisation: fast
 MATHLIBS: Intel MKL(2017.0.3) (LAPACK version 3.7.0)
 FFT Lib : mkl
 Fundamental constants values: CODATA 2010
 
 Run started: Tue, 30 Jun 2020 00:28:16 +0100
 Info: number of up-spin electrons is not equal to the
       number of down-spins but spin_polarized=false
     - consider setting spin_polarized=true.
 
 Atomic calculation performed for Al: 1s2 2s2 2p6 3s2 3p1
 
 Converged in 55 iterations to an ae energy of -6578.725 eV
 
   ============================================================                
   | Pseudopotential Report - Date of generation 30-06-2020   |                
   ------------------------------------------------------------                
   | Element: Al Ionic charge:  3.00 Level of theory: LDA     |                
   | Atomic Solver: Koelling-Harmon                           |                
   |                                                          |                
   |               Reference Electronic Structure             |                
   |         Orbital         Occupation         Energy        |                
   |            3s              2.000           -0.288        |                
   |            3p              1.000           -0.102        |                
   |                                                          |                
   |                 Pseudopotential Definition               |                
   |        Beta     l      e      Rc     scheme   norm       |                
   |          1      0   -0.288   2.192     qc      0         |                
   |          2      0    0.250   2.192     qc      0         |                
   |          3      1   -0.102   2.192     qc      0         |                
   |          4      1    0.250   2.192     qc      0         |                
   |          5      2    0.000   2.000     qc      0         |                
   |          6      2    0.250   2.000     qc      0         |                
   |         loc     3    0.000   2.192     pn      0         |                
   |                                                          |                
   | Augmentation charge Rinner = 1.398                       |                
   | Partial core correction Rc = 1.398                       |                
   ------------------------------------------------------------                
   | "3|2.2|2.2|1.4|4|5|5|30:31:32U2U2"                       |                
   ------------------------------------------------------------                
   |      Author: Chris J. Pickard, Cambridge University      |                
   ============================================================                
 
 Atomic calculation performed for Ti: 1s2 2s2 2p6 3s2 3p6 3d2 4s2
 
 Converged in 78 iterations to an ae energy of -23176.516 eV
 
   ============================================================                
   | Pseudopotential Report - Date of generation 30-06-2020   |                
   ------------------------------------------------------------                
   | Element: Ti Ionic charge: 12.00 Level of theory: LDA     |                
   | Atomic Solver: Koelling-Harmon                           |                
   |                                                          |                
   |               Reference Electronic Structure             |                
   |         Orbital         Occupation         Energy        |                
   |            3s              2.000           -2.288        |                
   |            3p              6.000           -1.425        |                
   |            4s              2.000           -0.169        |                
   |            3d              2.000           -0.164        |                
   |                                                          |                
   |                 Pseudopotential Definition               |                
   |        Beta     l      e      Rc     scheme   norm       |                
   |          1      0   -2.288   1.793     qc      0         |                
   |          2      0   -0.169   1.793     qc      0         |                
   |          3      0    0.250   1.793     qc      0         |                
   |          4      1   -1.425   1.793     qc      0         |                
   |          5      1    0.250   1.793     qc      0         |                
   |          6      2   -0.164   1.793     qc      0         |                
   |          7      2    0.250   1.793     qc      0         |                
   |         loc     3    0.000   1.793     pn      0         |                
   |                                                          |                
   | Augmentation charge Rinner = 1.263                       |                
   | Partial core correction Rc = 1.263                       |                
   ------------------------------------------------------------                
   | "3|1.8|9|10|11|30U:40:31:32(qc=5.5)"                     |                
   ------------------------------------------------------------                
   |      Author: Chris J. Pickard, Cambridge University      |                
   ============================================================                
 
 Pseudo atomic calculation performed for Al 3s2 3p1
 
 Converged in 18 iterations to a total energy of -105.5954 eV
 
 
 Pseudo atomic calculation performed for Ti 3s2 3p6 3d2 4s2
 
 Converged in 38 iterations to a total energy of -1586.0195 eV
 
 Calculation parallelised over 32 processes.
 Data is distributed by k-point(32-way)

 ************************************ Title ************************************
 

 ***************************** General Parameters ******************************
  
 output verbosity                               : normal  (1)
 write checkpoint data to                       : castep.check
 type of calculation                            : single point energy
 stress calculation                             : on
 density difference calculation                 : off
 electron localisation func (ELF) calculation   : off
 Hirshfeld analysis                             : off
 unlimited duration calculation
 timing information                             : on
 memory usage estimate                          : on
 write final potential to formatted file        : off
 write final density to formatted file          : off
 write BibTeX reference list                    : on
 write OTFG pseudopotential files               : on
 write electrostatic potential file             : on
 write bands file                               : on
 checkpoint writing                             : off
  
 output         length unit                     : A
 output           mass unit                     : amu
 output           time unit                     : ps
 output         charge unit                     : e
 output           spin unit                     : hbar/2
 output         energy unit                     : eV
 output          force unit                     : eV/A
 output       velocity unit                     : A/ps
 output       pressure unit                     : GPa
 output     inv_length unit                     : 1/A
 output      frequency unit                     : cm-1
 output force constant unit                     : eV/A**2
 output         volume unit                     : A**3
 output   IR intensity unit                     : (D/A)**2/amu
 output         dipole unit                     : D
 output         efield unit                     : eV/A/e
 output        entropy unit                     : J/mol/K
  
 wavefunctions paging                           : none
 random number generator seed                   : randomised (2817419)
 data distribution                              : optimal for this architecture
 optimization strategy                          : balance speed and memory

 *********************** Exchange-Correlation Parameters ***********************
  
 using functional                               : Local Density Approximation
 relativistic treatment                         : Koelling-Harmon
 DFT+D: Semi-empirical dispersion correction    : off

 ************************* Pseudopotential Parameters **************************
  
 pseudopotential representation                 : reciprocal space
 <beta|phi> representation                      : reciprocal space
 spin-orbit coupling                            : off

 **************************** Basis Set Parameters *****************************
  
 plane wave basis set cut-off                   :   700.0000   eV
 size of standard grid                          :     1.7500
 size of   fine   grid                          :     2.0000
 size of   fine   gmax                          :    27.1093   1/A
 finite basis set correction                    : automatic
 number of sample energies                      :          3
           sample  spacing                      :     5.0000   eV

 **************************** Electronic Parameters ****************************
  
 number of  electrons                           :  15.00    
 net charge of system                           :  0.000    
 treating system as non-spin-polarized
 number of bands                                :         12

 ********************* Electronic Minimization Parameters **********************
  
 Method: Treating system as metallic with density mixing treatment of electrons,
         and number of  SD  steps               :          1
         and number of  CG  steps               :          4
  
 total energy / atom convergence tol.           : 0.1000E-06   eV
 eigen-energy convergence tolerance             : 0.2500E-07   eV
 max force / atom convergence tol.              : 0.1000E-02   eV/A
 convergence tolerance window                   :          3   cycles
 max. number of SCF cycles                      :         30
 number of fixed-spin iterations                :         10
 smearing scheme                                : Gaussian
 smearing width                                 : 0.1000       eV
 Fermi energy convergence tolerance             : 0.2721E-13   eV
 periodic dipole correction                     : NONE

 ************************** Density Mixing Parameters **************************
  
 density-mixing scheme                          : Pulay
 max. length of mixing history                  :         20
 charge density mixing amplitude                : 0.8000    
 cut-off energy for mixing                      :  700.0       eV

 *********************** Population Analysis Parameters ************************
  
 Population analysis with cutoff                :  3.000       A

 *******************************************************************************
  
 
                           -------------------------------
                                      Unit Cell
                           -------------------------------
        Real Lattice(A)                      Reciprocal Lattice(1/A)
   2.8241050   0.0000000   0.0000000        2.2248413   0.0000000   0.0000000
   0.0000000   2.8241050   0.0000000        0.0000000   2.2248413   0.0000000
   0.0000000   0.0000000   4.0647120        0.0000000   0.0000000   1.5457886
 
                       Lattice parameters(A)       Cell Angles
                    a =    2.824105          alpha =   90.000000
                    b =    2.824105          beta  =   90.000000
                    c =    4.064712          gamma =   90.000000
 
                       Current cell volume =   32.418391       A**3
                                   density =    2.308830   AMU/A**3
                                           =    3.833901     g/cm^3
 
                           -------------------------------
                                     Cell Contents
                           -------------------------------
                         Total number of ions in cell =    2
                      Total number of species in cell =    2
                        Max number of any one species =    1
 
            xxxxxxxxxxxxxxxxxxxxxxxxxxxxxxxxxxxxxxxxxxxxxxxxxxxxxxxxxxxx
            x  Element    Atom        Fractional coordinates of atoms  x
            x            Number           u          v          w      x
            x----------------------------------------------------------x
            x  Al           1         0.000000   0.000000   0.000000   x 
            x  Ti           1         0.500000   0.500000   0.500000   x 
            xxxxxxxxxxxxxxxxxxxxxxxxxxxxxxxxxxxxxxxxxxxxxxxxxxxxxxxxxxxx
 
 
                         No user defined ionic velocities
 
                           -------------------------------
                                   Details of Species
                           -------------------------------
 
                               Mass of species in AMU
                                    Al   26.9815400
                                    Ti   47.8670000
 
                          Electric Quadrupole Moment (Barn)
                                    Al    0.1466000 Isotope 27
                                    Ti    0.3020000 Isotope 47
 
                          Files used for pseudopotentials:
                                    Al 3|2.2|2.2|1.4|4|5|5|30:31:32U2U2
                                    Ti 3|1.8|9|10|11|30U:40:31:32(qc=5.5)
 
                           -------------------------------
                              k-Points For BZ Sampling
                           -------------------------------
                       MP grid size for SCF calculation is 18 18 13
                            with an offset of   0.000  0.000  0.000
                       Number of kpoints used =          2106
 
                           -------------------------------
                               Symmetry and Constraints
                           -------------------------------
 
                      Maximum deviation from symmetry =  0.00000         ANG
 
                      Number of symmetry operations   =           1
                      Number of ionic constraints     =           3
                      Point group of crystal =     1: C1, 1, 1
                      Space group of crystal =   123: P4/mmm, -P 4 2
 
             Set iprint > 1 for details on symmetry rotations/translations
 
                         Centre of mass is constrained
             Set iprint > 1 for details of linear ionic constraints
 
                         Number of cell constraints= 0
                         Cell constraints are:  1 2 3 4 5 6
 
                         External pressure/stress (GPa)
                          0.00000   0.00000   0.00000
                                    0.00000   0.00000
                                              0.00000
  
+---------------- MEMORY AND SCRATCH DISK ESTIMATES PER PROCESS --------------+
|                                                     Memory          Disk    |
| Baseline code, static data and system overhead      388.0 MB         0.0 MB |
| BLAS internal memory storage                          0.0 MB         0.0 MB |
| Model and support data                               70.3 MB        63.8 MB |
| Electronic energy minimisation requirements          40.6 MB         0.0 MB |
| Force calculation requirements                        4.1 MB         0.0 MB |
| Stress calculation requirements                       4.4 MB         0.0 MB |
|                                               ----------------------------- |
| Approx. total storage required per process          498.8 MB        63.8 MB |
|                                                                             |
| Requirements will fluctuate during execution and may exceed these estimates |
+-----------------------------------------------------------------------------+
Calculating finite basis set correction with  3 cut-off energies.
Calculating total energy with cut-off of  690.000 eV.
------------------------------------------------------------------------ <-- SCF
SCF loop      Energy           Fermi           Energy gain       Timer   <-- SCF
                               energy          per atom          (sec)   <-- SCF
------------------------------------------------------------------------ <-- SCF
Initial  -1.41426699E+003  0.00000000E+000                        16.29  <-- SCF
      1  -1.67046670E+003  8.96684740E+000   1.28099855E+002      19.53  <-- SCF
          Max force change        7.252E-002                             <-- SCF
      2  -1.70376113E+003  7.09829424E+000   1.66472152E+001      22.54  <-- SCF
          Max force change        6.997E-002                             <-- SCF
      3  -1.70443462E+003  7.16292190E+000   3.36743812E-001      25.23  <-- SCF
          Max force change        1.044E-002                             <-- SCF
      4  -1.70430694E+003  6.79547024E+000  -6.38392722E-002      28.50  <-- SCF
          Max force change        1.561E-003                             <-- SCF
      5  -1.70427807E+003  7.15053691E+000  -1.44322368E-002      31.70  <-- SCF
          Max force change        6.530E-004                             <-- SCF
      6  -1.70425868E+003  7.00715453E+000  -9.69445298E-003      34.87  <-- SCF
          Max force change        3.759E-004                             <-- SCF
      7  -1.70425861E+003  7.00050436E+000  -3.92761579E-005      38.23  <-- SCF
          Max force change        1.559E-004                             <-- SCF
      8  -1.70425860E+003  7.00118126E+000  -5.16425970E-007      41.37  <-- SCF
          Max force change        4.709E-005                             <-- SCF
      9  -1.70425860E+003  7.00123639E+000  -1.54253449E-009      43.59  <-- SCF
          Max force change        2.897E-005                             <-- SCF
     10  -1.70425860E+003  7.00121539E+000   4.65776585E-010      45.70  <-- SCF
          Max force change        1.177E-005                             <-- SCF
     11  -1.70425860E+003  7.00120810E+000   2.07366288E-010      47.83  <-- SCF
          Max force change        4.550E-006                             <-- SCF
------------------------------------------------------------------------ <-- SCF
 
Final energy, E             =  -1704.249547872     eV
Final free energy (E-TS)    =  -1704.258604807     eV
(energies not corrected for finite basis set)
 
NB est. 0K energy (E-0.5TS)      =  -1704.254076340     eV
 
Calculating total energy with cut-off of  695.000 eV.
------------------------------------------------------------------------ <-- SCF
SCF loop      Energy           Fermi           Energy gain       Timer   <-- SCF
                               energy          per atom          (sec)   <-- SCF
------------------------------------------------------------------------ <-- SCF
Initial  -1.70424955E+003  0.00000000E+000                        49.11  <-- SCF
      1  -1.70425863E+003  7.00121573E+000   4.54094227E-003      51.59  <-- SCF
          Max force change        8.193E-008                             <-- SCF
      2  -1.70425863E+003  7.00121573E+000   1.35740329E-009      53.75  <-- SCF
          Max force change        7.133E-008                             <-- SCF
      3  -1.70425863E+003  7.00120057E+000   8.73741962E-010      55.91  <-- SCF
          Max force change        3.335E-006                             <-- SCF
      4  -1.70425863E+003  7.00122160E+000   2.95823236E-011      58.08  <-- SCF
          Max force change        4.503E-007                             <-- SCF
------------------------------------------------------------------------ <-- SCF
 
Final energy, E             =  -1704.249572874     eV
Final free energy (E-TS)    =  -1704.258629761     eV
(energies not corrected for finite basis set)
 
NB est. 0K energy (E-0.5TS)      =  -1704.254101318     eV
 
Calculating total energy with cut-off of  700.000 eV.
------------------------------------------------------------------------ <-- SCF
SCF loop      Energy           Fermi           Energy gain       Timer   <-- SCF
                               energy          per atom          (sec)   <-- SCF
------------------------------------------------------------------------ <-- SCF
Initial  -1.70424957E+003  0.00000000E+000                        59.35  <-- SCF
      1  -1.70425866E+003  7.00117823E+000   4.54124930E-003      61.92  <-- SCF
          Max force change        4.102E-008                             <-- SCF
      2  -1.70425866E+003  7.00117823E+000   1.27378005E-009      64.09  <-- SCF
          Max force change        2.360E-008                             <-- SCF
      3  -1.70425866E+003  7.00125374E+000   9.79696951E-010      66.27  <-- SCF
          Max force change        9.051E-008                             <-- SCF
      4  -1.70425866E+003  7.00120728E+000  -6.61638636E-010      68.45  <-- SCF
          Max force change        3.652E-008                             <-- SCF
------------------------------------------------------------------------ <-- SCF
 
Final energy, E             =  -1704.249598454     eV
Final free energy (E-TS)    =  -1704.258655376     eV
(energies not corrected for finite basis set)
 
NB est. 0K energy (E-0.5TS)      =  -1704.254126915     eV
 
 For future reference: finite basis dEtot/dlog(Ecut) =      -0.003510eV
 Total energy corrected for finite basis set =   -1704.258655 eV
 
 ******************* Unconstrained Forces *******************
 *                                                          *
 *               Cartesian components (eV/A)                *
 * -------------------------------------------------------- *
 *                         x            y            z      *
 *                                                          *
 * Al              1      0.00000      0.00000      0.00000 *
 * Ti              1     -0.00000     -0.00000     -0.00000 *
 *                                                          *
 ************************************************************
 
 ******************** Constrained Forces ********************
 *                                                          *
 *               Cartesian components (eV/A)                *
 * -------------------------------------------------------- *
 *                         x            y            z      *
 *                                                          *
 * Al              1      0.00000      0.00000      0.00000 *
 * Ti              1     -0.00000     -0.00000     -0.00000 *
 *                                                          *
 ************************************************************
 
 ***************** Stress Tensor *****************
 *                                               *
 *          Cartesian components (GPa)           *
 * --------------------------------------------- *
 *             x             y             z     *
 *                                               *
 *  x      6.757728     -0.000000     -0.000000  *
 *  y     -0.000000      6.757728     -0.000000  *
 *  z     -0.000000     -0.000000      6.337351  *
 *                                               *
 *  Pressure:   -6.6176                          *
 *                                               *
 *************************************************
 
 Pseudo atomic calculation performed for Al 3s2 3p1
 
 Converged in 18 iterations to a total energy of -105.5954 eV
 
 
 Pseudo atomic calculation performed for Ti 3s2 3p6 3d2 4s2
 
 Converged in 38 iterations to a total energy of -1586.0195 eV
 
Charge spilling parameter for spin component 1 = 0.25%
 
     Atomic Populations (Mulliken)
     -----------------------------
Species          Ion     s      p      d      f     Total  Charge (e)
=====================================================================
  Al              1     0.99   2.12   0.00   0.00   3.10    -0.10
  Ti              1     2.31   6.73   2.85   0.00  11.90     0.10
=====================================================================
 
                 Bond                   Population      Length (A)
======================================================================
======================================================================
 
 
 A BibTeX formatted list of references used in this run has been written to 
 castep.bib
 
Initialisation time =     11.63 s
Calculation time    =     58.80 s
Finalisation time   =      0.14 s
Total time          =     70.57 s
Peak Memory Use     = 839148 kB
  
Overall parallel efficiency rating: Very good (80%)                             
  
Data was distributed by:-
k-point (32-way); efficiency rating: Very good (82%)                            
  
Parallel notes:
1) Calculation only took 71.4 s, so efficiency estimates may be inaccurate.     
 +-------------------------------------------------+
 |                                                 |
 |      CCC   AA    SSS  TTTTT  EEEEE  PPPP        |
 |     C     A  A  S       T    E      P   P       |
 |     C     AAAA   SS     T    EEE    PPPP        |
 |     C     A  A     S    T    E      P           |
 |      CCC  A  A  SSS     T    EEEEE  P           |
 |                                                 |
 +-------------------------------------------------+
 |                                                 |
 | Welcome to Academic Release CASTEP version 17.21|          
 | Ab Initio Total Energy Program                  |
 |                                                 |
 | Authors:                                        |
 | M. Segall, M. Probert, C. Pickard, P. Hasnip,   |
 | S. Clark, K. Refson, J. R. Yates, M. Payne      |
 |                                                 |
 | Contributors:                                   |
 | P. Lindan, P. Haynes, J. White, V. Milman,      |
 | N. Govind, M. Gibson, P. Tulip, V. Cocula,      |
 | B. Montanari, D. Quigley, M. Glover,            |
 | L. Bernasconi, A. Perlov, M. Plummer,           |
 | E. McNellis, J. Meyer, J. Gale, D. Jochym       |
 | J. Aarons, B. Walker, R. Gillen, D. Jones       |
 | T. Green, I. J. Bush, C. J. Armstrong,          |
 | E. J. Higgins, E. L. Brown, M. S. McFly,        |
 | J. Wilkins, B-C. Shih, P. J. P. Byrne           |
 |                                                 |
 | Copyright (c) 2000 - 2017                       |
 |                                                 |
 |     Distributed under the terms of an           |
 |     Agreement between the United Kingdom        |
 |     Car-Parrinello (UKCP) Consortium,           |
 |     Daresbury Laboratory and Accelrys, Inc.     |
 |                                                 |
 | Please cite                                     |
 |                                                 |
 |     "First principles methods using CASTEP"     |
 |                                                 |
 |         Zeitschrift fuer Kristallographie       |
 |           220(5-6) pp. 567-570 (2005)           |
 |                                                 |
 | S. J. Clark, M. D. Segall, C. J. Pickard,       |
 | P. J. Hasnip, M. J. Probert, K. Refson,         |
 | M. C. Payne                                     |
 |                                                 |
 |       in all publications arising from          |
 |              your use of CASTEP                 |
 |                                                 |
 +-------------------------------------------------+
 
 
 Compiled for linux_x86_64_ifort17 on Fri, 08 Dec 2017 17:04:03 +0000
 from code version 
 056e886bd5a1+ Castep172_branch Mon, 15 May 2017 14:45:35 +0100
 Compiler: Intel Fortran 17.0.4.196; Optimisation: fast
 MATHLIBS: Intel MKL(2017.0.3) (LAPACK version 3.7.0)
 FFT Lib : mkl
 Fundamental constants values: CODATA 2010
 
 Run started: Tue, 30 Jun 2020 00:29:27 +0100
 Info: number of up-spin electrons is not equal to the
       number of down-spins but spin_polarized=false
     - consider setting spin_polarized=true.
 
 Atomic calculation performed for Al: 1s2 2s2 2p6 3s2 3p1
 
 Converged in 55 iterations to an ae energy of -6578.725 eV
 
   ============================================================                
   | Pseudopotential Report - Date of generation 30-06-2020   |                
   ------------------------------------------------------------                
   | Element: Al Ionic charge:  3.00 Level of theory: LDA     |                
   | Atomic Solver: Koelling-Harmon                           |                
   |                                                          |                
   |               Reference Electronic Structure             |                
   |         Orbital         Occupation         Energy        |                
   |            3s              2.000           -0.288        |                
   |            3p              1.000           -0.102        |                
   |                                                          |                
   |                 Pseudopotential Definition               |                
   |        Beta     l      e      Rc     scheme   norm       |                
   |          1      0   -0.288   2.192     qc      0         |                
   |          2      0    0.250   2.192     qc      0         |                
   |          3      1   -0.102   2.192     qc      0         |                
   |          4      1    0.250   2.192     qc      0         |                
   |          5      2    0.000   2.000     qc      0         |                
   |          6      2    0.250   2.000     qc      0         |                
   |         loc     3    0.000   2.192     pn      0         |                
   |                                                          |                
   | Augmentation charge Rinner = 1.398                       |                
   | Partial core correction Rc = 1.398                       |                
   ------------------------------------------------------------                
   | "3|2.2|2.2|1.4|4|5|5|30:31:32U2U2"                       |                
   ------------------------------------------------------------                
   |      Author: Chris J. Pickard, Cambridge University      |                
   ============================================================                
 
 Atomic calculation performed for Ti: 1s2 2s2 2p6 3s2 3p6 3d2 4s2
 
 Converged in 78 iterations to an ae energy of -23176.516 eV
 
   ============================================================                
   | Pseudopotential Report - Date of generation 30-06-2020   |                
   ------------------------------------------------------------                
   | Element: Ti Ionic charge: 12.00 Level of theory: LDA     |                
   | Atomic Solver: Koelling-Harmon                           |                
   |                                                          |                
   |               Reference Electronic Structure             |                
   |         Orbital         Occupation         Energy        |                
   |            3s              2.000           -2.288        |                
   |            3p              6.000           -1.425        |                
   |            4s              2.000           -0.169        |                
   |            3d              2.000           -0.164        |                
   |                                                          |                
   |                 Pseudopotential Definition               |                
   |        Beta     l      e      Rc     scheme   norm       |                
   |          1      0   -2.288   1.793     qc      0         |                
   |          2      0   -0.169   1.793     qc      0         |                
   |          3      0    0.250   1.793     qc      0         |                
   |          4      1   -1.425   1.793     qc      0         |                
   |          5      1    0.250   1.793     qc      0         |                
   |          6      2   -0.164   1.793     qc      0         |                
   |          7      2    0.250   1.793     qc      0         |                
   |         loc     3    0.000   1.793     pn      0         |                
   |                                                          |                
   | Augmentation charge Rinner = 1.263                       |                
   | Partial core correction Rc = 1.263                       |                
   ------------------------------------------------------------                
   | "3|1.8|9|10|11|30U:40:31:32(qc=5.5)"                     |                
   ------------------------------------------------------------                
   |      Author: Chris J. Pickard, Cambridge University      |                
   ============================================================                
 
 Pseudo atomic calculation performed for Al 3s2 3p1
 
 Converged in 18 iterations to a total energy of -105.5954 eV
 
 
 Pseudo atomic calculation performed for Ti 3s2 3p6 3d2 4s2
 
 Converged in 38 iterations to a total energy of -1586.0195 eV
 
 Calculation parallelised over 32 processes.
 Data is distributed by k-point(32-way)

 ************************************ Title ************************************
 

 ***************************** General Parameters ******************************
  
 output verbosity                               : normal  (1)
 write checkpoint data to                       : castep.check
 type of calculation                            : single point energy
 stress calculation                             : on
 density difference calculation                 : off
 electron localisation func (ELF) calculation   : off
 Hirshfeld analysis                             : off
 unlimited duration calculation
 timing information                             : on
 memory usage estimate                          : on
 write final potential to formatted file        : off
 write final density to formatted file          : off
 write BibTeX reference list                    : on
 write OTFG pseudopotential files               : on
 write electrostatic potential file             : on
 write bands file                               : on
 checkpoint writing                             : off
  
 output         length unit                     : A
 output           mass unit                     : amu
 output           time unit                     : ps
 output         charge unit                     : e
 output           spin unit                     : hbar/2
 output         energy unit                     : eV
 output          force unit                     : eV/A
 output       velocity unit                     : A/ps
 output       pressure unit                     : GPa
 output     inv_length unit                     : 1/A
 output      frequency unit                     : cm-1
 output force constant unit                     : eV/A**2
 output         volume unit                     : A**3
 output   IR intensity unit                     : (D/A)**2/amu
 output         dipole unit                     : D
 output         efield unit                     : eV/A/e
 output        entropy unit                     : J/mol/K
  
 wavefunctions paging                           : none
 random number generator seed                   : randomised (2928168)
 data distribution                              : optimal for this architecture
 optimization strategy                          : maximize speed(+++)

 *********************** Exchange-Correlation Parameters ***********************
  
 using functional                               : Local Density Approximation
 relativistic treatment                         : Koelling-Harmon
 DFT+D: Semi-empirical dispersion correction    : off

 ************************* Pseudopotential Parameters **************************
  
 pseudopotential representation                 : reciprocal space
 <beta|phi> representation                      : reciprocal space
 spin-orbit coupling                            : off

 **************************** Basis Set Parameters *****************************
  
 plane wave basis set cut-off                   :   700.0000   eV
 size of standard grid                          :     1.7500
 size of   fine   grid                          :     2.0000
 size of   fine   gmax                          :    27.1093   1/A
 finite basis set correction                    : automatic
 number of sample energies                      :          3
           sample  spacing                      :     5.0000   eV

 **************************** Electronic Parameters ****************************
  
 number of  electrons                           :  15.00    
 net charge of system                           :  0.000    
 treating system as non-spin-polarized
 number of bands                                :         12

 ********************* Electronic Minimization Parameters **********************
  
 Method: Treating system as metallic with density mixing treatment of electrons,
         and number of  SD  steps               :          1
         and number of  CG  steps               :          4
  
 total energy / atom convergence tol.           : 0.1000E-06   eV
 eigen-energy convergence tolerance             : 0.2500E-07   eV
 max force / atom convergence tol.              : 0.1000E-02   eV/A
 convergence tolerance window                   :          3   cycles
 max. number of SCF cycles                      :         30
 number of fixed-spin iterations                :         10
 smearing scheme                                : Gaussian
 smearing width                                 : 0.1000       eV
 Fermi energy convergence tolerance             : 0.2721E-13   eV
 periodic dipole correction                     : NONE

 ************************** Density Mixing Parameters **************************
  
 density-mixing scheme                          : Pulay
 max. length of mixing history                  :         20
 charge density mixing amplitude                : 0.8000    
 cut-off energy for mixing                      :  700.0       eV

 *********************** Population Analysis Parameters ************************
  
 Population analysis with cutoff                :  3.000       A

 *******************************************************************************
  
 
                           -------------------------------
                                      Unit Cell
                           -------------------------------
        Real Lattice(A)                      Reciprocal Lattice(1/A)
   2.8524880   0.0000000   0.0000000        2.2027035   0.0000000   0.0000000
   0.0000000   2.8524880   0.0000000        0.0000000   2.2027035   0.0000000
   0.0000000   0.0000000   4.1055630        0.0000000   0.0000000   1.5304077
 
                       Lattice parameters(A)       Cell Angles
                    a =    2.852488          alpha =   90.000000
                    b =    2.852488          beta  =   90.000000
                    c =    4.105563          gamma =   90.000000
 
                       Current cell volume =   33.405684       A**3
                                   density =    2.240593   AMU/A**3
                                           =    3.720592     g/cm^3
 
                           -------------------------------
                                     Cell Contents
                           -------------------------------
                         Total number of ions in cell =    2
                      Total number of species in cell =    2
                        Max number of any one species =    1
 
            xxxxxxxxxxxxxxxxxxxxxxxxxxxxxxxxxxxxxxxxxxxxxxxxxxxxxxxxxxxx
            x  Element    Atom        Fractional coordinates of atoms  x
            x            Number           u          v          w      x
            x----------------------------------------------------------x
            x  Al           1         0.000000   0.000000   0.000000   x 
            x  Ti           1         0.508415   0.508415   0.505846   x 
            xxxxxxxxxxxxxxxxxxxxxxxxxxxxxxxxxxxxxxxxxxxxxxxxxxxxxxxxxxxx
 
 
                         No user defined ionic velocities
 
                           -------------------------------
                                   Details of Species
                           -------------------------------
 
                               Mass of species in AMU
                                    Al   26.9815400
                                    Ti   47.8670000
 
                          Electric Quadrupole Moment (Barn)
                                    Al    0.1466000 Isotope 27
                                    Ti    0.3020000 Isotope 47
 
                          Files used for pseudopotentials:
                                    Al 3|2.2|2.2|1.4|4|5|5|30:31:32U2U2
                                    Ti 3|1.8|9|10|11|30U:40:31:32(qc=5.5)
 
                           -------------------------------
                              k-Points For BZ Sampling
                           -------------------------------
                       MP grid size for SCF calculation is 18 18 13
                            with an offset of   0.000  0.000  0.000
                       Number of kpoints used =          2106
 
                           -------------------------------
                               Symmetry and Constraints
                           -------------------------------
 
                      Maximum deviation from symmetry =  0.00000         ANG
 
                      Number of symmetry operations   =           1
                      Number of ionic constraints     =           3
                      Point group of crystal =     1: C1, 1, 1
                      Space group of crystal =     8: Cm, C -2y
 
             Set iprint > 1 for details on symmetry rotations/translations
 
                         Centre of mass is constrained
             Set iprint > 1 for details of linear ionic constraints
 
                         Number of cell constraints= 0
                         Cell constraints are:  1 2 3 4 5 6
 
                         External pressure/stress (GPa)
                          0.00000   0.00000   0.00000
                                    0.00000   0.00000
                                              0.00000
  
+---------------- MEMORY AND SCRATCH DISK ESTIMATES PER PROCESS --------------+
|                                                     Memory          Disk    |
| Baseline code, static data and system overhead      388.0 MB         0.0 MB |
| BLAS internal memory storage                          0.0 MB         0.0 MB |
| Model and support data                              134.9 MB         0.0 MB |
| Electronic energy minimisation requirements          41.8 MB         0.0 MB |
| Force calculation requirements                        4.1 MB         0.0 MB |
| Stress calculation requirements                       4.4 MB         0.0 MB |
|                                               ----------------------------- |
| Approx. total storage required per process          564.7 MB         0.0 MB |
|                                                                             |
| Requirements will fluctuate during execution and may exceed these estimates |
+-----------------------------------------------------------------------------+
Calculating finite basis set correction with  3 cut-off energies.
Calculating total energy with cut-off of  690.000 eV.
------------------------------------------------------------------------ <-- SCF
SCF loop      Energy           Fermi           Energy gain       Timer   <-- SCF
                               energy          per atom          (sec)   <-- SCF
------------------------------------------------------------------------ <-- SCF
Initial  -1.41261168E+003  0.00000000E+000                        14.47  <-- SCF
      1  -1.67011122E+003  8.71041473E+000   1.28749768E+002      17.75  <-- SCF
          Max force change        1.633E-001                             <-- SCF
      2  -1.70367180E+003  6.82616698E+000   1.67802881E+001      20.80  <-- SCF
          Max force change        1.841E-001                             <-- SCF
      3  -1.70438209E+003  6.89625504E+000   3.55147317E-001      23.57  <-- SCF
          Max force change        3.203E-002                             <-- SCF
      4  -1.70425891E+003  6.50925404E+000  -6.15914268E-002      26.91  <-- SCF
          Max force change        4.844E-001                             <-- SCF
      5  -1.70422539E+003  6.87890246E+000  -1.67572428E-002      30.18  <-- SCF
          Max force change        7.812E-002                             <-- SCF
      6  -1.70420569E+003  6.73393853E+000  -9.85196740E-003      33.42  <-- SCF
          Max force change        2.348E-002                             <-- SCF
      7  -1.70420561E+003  6.72686688E+000  -4.13696306E-005      36.89  <-- SCF
          Max force change        1.764E-002                             <-- SCF
      8  -1.70420561E+003  6.72757609E+000  -5.37052680E-007      40.09  <-- SCF
          Max force change        5.492E-003                             <-- SCF
      9  -1.70420561E+003  6.72761823E+000  -2.49274580E-009      42.37  <-- SCF
          Max force change        2.206E-003                             <-- SCF
     10  -1.70420561E+003  6.72760159E+000   3.71615856E-010      44.54  <-- SCF
          Max force change        7.579E-004                             <-- SCF
     11  -1.70420561E+003  6.72759379E+000   1.93735217E-010      46.70  <-- SCF
          Max force change        1.351E-004                             <-- SCF
------------------------------------------------------------------------ <-- SCF
 
Final energy, E             =  -1704.196308933     eV
Final free energy (E-TS)    =  -1704.205605975     eV
(energies not corrected for finite basis set)
 
NB est. 0K energy (E-0.5TS)      =  -1704.200957454     eV
 
Calculating total energy with cut-off of  695.000 eV.
------------------------------------------------------------------------ <-- SCF
SCF loop      Energy           Fermi           Energy gain       Timer   <-- SCF
                               energy          per atom          (sec)   <-- SCF
------------------------------------------------------------------------ <-- SCF
Initial  -1.70419631E+003  0.00000000E+000                        48.05  <-- SCF
      1  -1.70420563E+003  6.72759950E+000   4.66109783E-003      50.64  <-- SCF
          Max force change        1.727E-002                             <-- SCF
      2  -1.70420563E+003  6.72759950E+000   1.35305294E-009      52.85  <-- SCF
          Max force change        1.965E-006                             <-- SCF
      3  -1.70420563E+003  6.72758827E+000   8.73258591E-010      55.05  <-- SCF
          Max force change        1.095E-004                             <-- SCF
      4  -1.70420563E+003  6.72760784E+000   5.96480185E-011      57.25  <-- SCF
          Max force change        1.796E-005                             <-- SCF
------------------------------------------------------------------------ <-- SCF
 
Final energy, E             =  -1704.196334138     eV
Final free energy (E-TS)    =  -1704.205631133     eV
(energies not corrected for finite basis set)
 
NB est. 0K energy (E-0.5TS)      =  -1704.200982635     eV
 
Calculating total energy with cut-off of  700.000 eV.
------------------------------------------------------------------------ <-- SCF
SCF loop      Energy           Fermi           Energy gain       Timer   <-- SCF
                               energy          per atom          (sec)   <-- SCF
------------------------------------------------------------------------ <-- SCF
Initial  -1.70419633E+003  0.00000000E+000                        58.54  <-- SCF
      1  -1.70420566E+003  6.72755925E+000   4.66153107E-003      61.10  <-- SCF
          Max force change        1.728E-002                             <-- SCF
      2  -1.70420566E+003  6.72755925E+000   1.30442579E-009      63.27  <-- SCF
          Max force change        2.266E-007                             <-- SCF
      3  -1.70420566E+003  6.72764575E+000   1.10653358E-009      65.44  <-- SCF
          Max force change        4.739E-006                             <-- SCF
      4  -1.70420566E+003  6.72759274E+000  -9.07481279E-010      67.61  <-- SCF
          Max force change        1.038E-006                             <-- SCF
------------------------------------------------------------------------ <-- SCF
 
Final energy, E             =  -1704.196360220     eV
Final free energy (E-TS)    =  -1704.205657203     eV
(energies not corrected for finite basis set)
 
NB est. 0K energy (E-0.5TS)      =  -1704.201008711     eV
 
 For future reference: finite basis dEtot/dlog(Ecut) =      -0.003551eV
 Total energy corrected for finite basis set =   -1704.205657 eV
 
 ******************* Unconstrained Forces *******************
 *                                                          *
 *               Cartesian components (eV/A)                *
 * -------------------------------------------------------- *
 *                         x            y            z      *
 *                                                          *
 * Al              1      0.08880      0.08880      0.10779 *
 * Ti              1     -0.08880     -0.08880     -0.10779 *
 *                                                          *
 ************************************************************
 
 ******************** Constrained Forces ********************
 *                                                          *
 *               Cartesian components (eV/A)                *
 * -------------------------------------------------------- *
 *                         x            y            z      *
 *                                                          *
 * Al              1      0.08880      0.08880      0.10779 *
 * Ti              1     -0.08880     -0.08880     -0.10779 *
 *                                                          *
 ************************************************************
 
 ***************** Stress Tensor *****************
 *                                               *
 *          Cartesian components (GPa)           *
 * --------------------------------------------- *
 *             x             y             z     *
 *                                               *
 *  x      9.560695     -0.016515     -0.040071  *
 *  y     -0.016515      9.560695     -0.040071  *
 *  z     -0.040071     -0.040071      9.091114  *
 *                                               *
 *  Pressure:   -9.4042                          *
 *                                               *
 *************************************************
 
 Pseudo atomic calculation performed for Al 3s2 3p1
 
 Converged in 18 iterations to a total energy of -105.5954 eV
 
 
 Pseudo atomic calculation performed for Ti 3s2 3p6 3d2 4s2
 
 Converged in 38 iterations to a total energy of -1586.0195 eV
 
Charge spilling parameter for spin component 1 = 0.24%
 
     Atomic Populations (Mulliken)
     -----------------------------
Species          Ion     s      p      d      f     Total  Charge (e)
=====================================================================
  Al              1     1.00   2.10   0.00   0.00   3.10    -0.10
  Ti              1     2.32   6.74   2.84   0.00  11.90     0.10
=====================================================================
 
                 Bond                   Population      Length (A)
======================================================================
              Al 1 -- Ti 1                   0.70        2.83699
======================================================================
 
 
 A BibTeX formatted list of references used in this run has been written to 
 castep.bib
 
Initialisation time =     10.71 s
Calculation time    =     59.84 s
Finalisation time   =      0.62 s
Total time          =     71.17 s
Peak Memory Use     = 848756 kB
  
Overall parallel efficiency rating: Very good (81%)                             
  
Data was distributed by:-
k-point (32-way); efficiency rating: Very good (84%)                            
  
Parallel notes:
1) Calculation only took 70.6 s, so efficiency estimates may be inaccurate.     
 +-------------------------------------------------+
 |                                                 |
 |      CCC   AA    SSS  TTTTT  EEEEE  PPPP        |
 |     C     A  A  S       T    E      P   P       |
 |     C     AAAA   SS     T    EEE    PPPP        |
 |     C     A  A     S    T    E      P           |
 |      CCC  A  A  SSS     T    EEEEE  P           |
 |                                                 |
 +-------------------------------------------------+
 |                                                 |
 | Welcome to Academic Release CASTEP version 17.21|          
 | Ab Initio Total Energy Program                  |
 |                                                 |
 | Authors:                                        |
 | M. Segall, M. Probert, C. Pickard, P. Hasnip,   |
 | S. Clark, K. Refson, J. R. Yates, M. Payne      |
 |                                                 |
 | Contributors:                                   |
 | P. Lindan, P. Haynes, J. White, V. Milman,      |
 | N. Govind, M. Gibson, P. Tulip, V. Cocula,      |
 | B. Montanari, D. Quigley, M. Glover,            |
 | L. Bernasconi, A. Perlov, M. Plummer,           |
 | E. McNellis, J. Meyer, J. Gale, D. Jochym       |
 | J. Aarons, B. Walker, R. Gillen, D. Jones       |
 | T. Green, I. J. Bush, C. J. Armstrong,          |
 | E. J. Higgins, E. L. Brown, M. S. McFly,        |
 | J. Wilkins, B-C. Shih, P. J. P. Byrne           |
 |                                                 |
 | Copyright (c) 2000 - 2017                       |
 |                                                 |
 |     Distributed under the terms of an           |
 |     Agreement between the United Kingdom        |
 |     Car-Parrinello (UKCP) Consortium,           |
 |     Daresbury Laboratory and Accelrys, Inc.     |
 |                                                 |
 | Please cite                                     |
 |                                                 |
 |     "First principles methods using CASTEP"     |
 |                                                 |
 |         Zeitschrift fuer Kristallographie       |
 |           220(5-6) pp. 567-570 (2005)           |
 |                                                 |
 | S. J. Clark, M. D. Segall, C. J. Pickard,       |
 | P. J. Hasnip, M. J. Probert, K. Refson,         |
 | M. C. Payne                                     |
 |                                                 |
 |       in all publications arising from          |
 |              your use of CASTEP                 |
 |                                                 |
 +-------------------------------------------------+
 
 
 Compiled for linux_x86_64_ifort17 on Fri, 08 Dec 2017 17:04:03 +0000
 from code version 
 056e886bd5a1+ Castep172_branch Mon, 15 May 2017 14:45:35 +0100
 Compiler: Intel Fortran 17.0.4.196; Optimisation: fast
 MATHLIBS: Intel MKL(2017.0.3) (LAPACK version 3.7.0)
 FFT Lib : mkl
 Fundamental constants values: CODATA 2010
 
 Run started: Tue, 30 Jun 2020 00:30:39 +0100
 Info: number of up-spin electrons is not equal to the
       number of down-spins but spin_polarized=false
     - consider setting spin_polarized=true.
 
 Atomic calculation performed for Al: 1s2 2s2 2p6 3s2 3p1
 
 Converged in 55 iterations to an ae energy of -6578.725 eV
 
   ============================================================                
   | Pseudopotential Report - Date of generation 30-06-2020   |                
   ------------------------------------------------------------                
   | Element: Al Ionic charge:  3.00 Level of theory: LDA     |                
   | Atomic Solver: Koelling-Harmon                           |                
   |                                                          |                
   |               Reference Electronic Structure             |                
   |         Orbital         Occupation         Energy        |                
   |            3s              2.000           -0.288        |                
   |            3p              1.000           -0.102        |                
   |                                                          |                
   |                 Pseudopotential Definition               |                
   |        Beta     l      e      Rc     scheme   norm       |                
   |          1      0   -0.288   2.192     qc      0         |                
   |          2      0    0.250   2.192     qc      0         |                
   |          3      1   -0.102   2.192     qc      0         |                
   |          4      1    0.250   2.192     qc      0         |                
   |          5      2    0.000   2.000     qc      0         |                
   |          6      2    0.250   2.000     qc      0         |                
   |         loc     3    0.000   2.192     pn      0         |                
   |                                                          |                
   | Augmentation charge Rinner = 1.398                       |                
   | Partial core correction Rc = 1.398                       |                
   ------------------------------------------------------------                
   | "3|2.2|2.2|1.4|4|5|5|30:31:32U2U2"                       |                
   ------------------------------------------------------------                
   |      Author: Chris J. Pickard, Cambridge University      |                
   ============================================================                
 
 Atomic calculation performed for Ti: 1s2 2s2 2p6 3s2 3p6 3d2 4s2
 
 Converged in 78 iterations to an ae energy of -23176.516 eV
 
   ============================================================                
   | Pseudopotential Report - Date of generation 30-06-2020   |                
   ------------------------------------------------------------                
   | Element: Ti Ionic charge: 12.00 Level of theory: LDA     |                
   | Atomic Solver: Koelling-Harmon                           |                
   |                                                          |                
   |               Reference Electronic Structure             |                
   |         Orbital         Occupation         Energy        |                
   |            3s              2.000           -2.288        |                
   |            3p              6.000           -1.425        |                
   |            4s              2.000           -0.169        |                
   |            3d              2.000           -0.164        |                
   |                                                          |                
   |                 Pseudopotential Definition               |                
   |        Beta     l      e      Rc     scheme   norm       |                
   |          1      0   -2.288   1.793     qc      0         |                
   |          2      0   -0.169   1.793     qc      0         |                
   |          3      0    0.250   1.793     qc      0         |                
   |          4      1   -1.425   1.793     qc      0         |                
   |          5      1    0.250   1.793     qc      0         |                
   |          6      2   -0.164   1.793     qc      0         |                
   |          7      2    0.250   1.793     qc      0         |                
   |         loc     3    0.000   1.793     pn      0         |                
   |                                                          |                
   | Augmentation charge Rinner = 1.263                       |                
   | Partial core correction Rc = 1.263                       |                
   ------------------------------------------------------------                
   | "3|1.8|9|10|11|30U:40:31:32(qc=5.5)"                     |                
   ------------------------------------------------------------                
   |      Author: Chris J. Pickard, Cambridge University      |                
   ============================================================                
 
 Pseudo atomic calculation performed for Al 3s2 3p1
 
 Converged in 18 iterations to a total energy of -105.5954 eV
 
 
 Pseudo atomic calculation performed for Ti 3s2 3p6 3d2 4s2
 
 Converged in 38 iterations to a total energy of -1586.0195 eV
 
 Calculation parallelised over 32 processes.
 Data is distributed by k-point(32-way)

 ************************************ Title ************************************
 

 ***************************** General Parameters ******************************
  
 output verbosity                               : normal  (1)
 write checkpoint data to                       : castep.check
 type of calculation                            : single point energy
 stress calculation                             : on
 density difference calculation                 : off
 electron localisation func (ELF) calculation   : off
 Hirshfeld analysis                             : off
 unlimited duration calculation
 timing information                             : on
 memory usage estimate                          : on
 write final potential to formatted file        : off
 write final density to formatted file          : off
 write BibTeX reference list                    : on
 write OTFG pseudopotential files               : on
 write electrostatic potential file             : on
 write bands file                               : on
 checkpoint writing                             : off
  
 output         length unit                     : A
 output           mass unit                     : amu
 output           time unit                     : ps
 output         charge unit                     : e
 output           spin unit                     : hbar/2
 output         energy unit                     : eV
 output          force unit                     : eV/A
 output       velocity unit                     : A/ps
 output       pressure unit                     : GPa
 output     inv_length unit                     : 1/A
 output      frequency unit                     : cm-1
 output force constant unit                     : eV/A**2
 output         volume unit                     : A**3
 output   IR intensity unit                     : (D/A)**2/amu
 output         dipole unit                     : D
 output         efield unit                     : eV/A/e
 output        entropy unit                     : J/mol/K
  
 wavefunctions paging                           : none
 random number generator seed                   : randomised (3039834)
 data distribution                              : optimal for this architecture
 optimization strategy                          : maximize speed(+++)

 *********************** Exchange-Correlation Parameters ***********************
  
 using functional                               : Local Density Approximation
 relativistic treatment                         : Koelling-Harmon
 DFT+D: Semi-empirical dispersion correction    : off

 ************************* Pseudopotential Parameters **************************
  
 pseudopotential representation                 : reciprocal space
 <beta|phi> representation                      : reciprocal space
 spin-orbit coupling                            : off

 **************************** Basis Set Parameters *****************************
  
 plane wave basis set cut-off                   :   700.0000   eV
 size of standard grid                          :     1.7500
 size of   fine   grid                          :     2.0000
 size of   fine   gmax                          :    27.1093   1/A
 finite basis set correction                    : automatic
 number of sample energies                      :          3
           sample  spacing                      :     5.0000   eV

 **************************** Electronic Parameters ****************************
  
 number of  electrons                           :  15.00    
 net charge of system                           :  0.000    
 treating system as non-spin-polarized
 number of bands                                :         12

 ********************* Electronic Minimization Parameters **********************
  
 Method: Treating system as metallic with density mixing treatment of electrons,
         and number of  SD  steps               :          1
         and number of  CG  steps               :          4
  
 total energy / atom convergence tol.           : 0.1000E-06   eV
 eigen-energy convergence tolerance             : 0.2500E-07   eV
 max force / atom convergence tol.              : 0.1000E-02   eV/A
 convergence tolerance window                   :          3   cycles
 max. number of SCF cycles                      :         30
 number of fixed-spin iterations                :         10
 smearing scheme                                : Gaussian
 smearing width                                 : 0.1000       eV
 Fermi energy convergence tolerance             : 0.2721E-13   eV
 periodic dipole correction                     : NONE

 ************************** Density Mixing Parameters **************************
  
 density-mixing scheme                          : Pulay
 max. length of mixing history                  :         20
 charge density mixing amplitude                : 0.8000    
 cut-off energy for mixing                      :  700.0       eV

 *********************** Population Analysis Parameters ************************
  
 Population analysis with cutoff                :  3.000       A

 *******************************************************************************
  
 
                           -------------------------------
                                      Unit Cell
                           -------------------------------
        Real Lattice(A)                      Reciprocal Lattice(1/A)
   2.8241050   0.0000000   0.0000000        2.2248413   0.0000000   0.0000000
   0.0000000   2.8241050   0.0000000        0.0000000   2.2248413   0.0000000
   0.0000000   0.0000000   4.0647120        0.0000000   0.0000000   1.5457886
 
                       Lattice parameters(A)       Cell Angles
                    a =    2.824105          alpha =   90.000000
                    b =    2.824105          beta  =   90.000000
                    c =    4.064712          gamma =   90.000000
 
                       Current cell volume =   32.418391       A**3
                                   density =    2.308830   AMU/A**3
                                           =    3.833901     g/cm^3
 
                           -------------------------------
                                     Cell Contents
                           -------------------------------
                         Total number of ions in cell =    2
                      Total number of species in cell =    2
                        Max number of any one species =    1
 
            xxxxxxxxxxxxxxxxxxxxxxxxxxxxxxxxxxxxxxxxxxxxxxxxxxxxxxxxxxxx
            x  Element    Atom        Fractional coordinates of atoms  x
            x            Number           u          v          w      x
            x----------------------------------------------------------x
            x  Al           1         0.000000   0.000000   0.000000   x 
            x  Ti           1         0.500000   0.500000   0.500000   x 
            xxxxxxxxxxxxxxxxxxxxxxxxxxxxxxxxxxxxxxxxxxxxxxxxxxxxxxxxxxxx
 
 
                         No user defined ionic velocities
 
                           -------------------------------
                                   Details of Species
                           -------------------------------
 
                               Mass of species in AMU
                                    Al   26.9815400
                                    Ti   47.8670000
 
                          Electric Quadrupole Moment (Barn)
                                    Al    0.1466000 Isotope 27
                                    Ti    0.3020000 Isotope 47
 
                          Files used for pseudopotentials:
                                    Al 3|2.2|2.2|1.4|4|5|5|30:31:32U2U2
                                    Ti 3|1.8|9|10|11|30U:40:31:32(qc=5.5)
 
                           -------------------------------
                              k-Points For BZ Sampling
                           -------------------------------
                       MP grid size for SCF calculation is 18 18 13
                            with an offset of   0.000  0.000  0.000
                       Number of kpoints used =          2106
 
                           -------------------------------
                               Symmetry and Constraints
                           -------------------------------
 
                      Maximum deviation from symmetry =  0.00000         ANG
 
                      Number of symmetry operations   =           1
                      Number of ionic constraints     =           3
                      Point group of crystal =     1: C1, 1, 1
                      Space group of crystal =   123: P4/mmm, -P 4 2
 
             Set iprint > 1 for details on symmetry rotations/translations
 
                         Centre of mass is constrained
             Set iprint > 1 for details of linear ionic constraints
 
                         Number of cell constraints= 0
                         Cell constraints are:  1 2 3 4 5 6
 
                         External pressure/stress (GPa)
                          0.00000   0.00000   0.00000
                                    0.00000   0.00000
                                              0.00000
  
+---------------- MEMORY AND SCRATCH DISK ESTIMATES PER PROCESS --------------+
|                                                     Memory          Disk    |
| Baseline code, static data and system overhead      388.0 MB         0.0 MB |
| BLAS internal memory storage                          0.0 MB         0.0 MB |
| Model and support data                              133.9 MB         0.0 MB |
| Electronic energy minimisation requirements          40.6 MB         0.0 MB |
| Force calculation requirements                        4.1 MB         0.0 MB |
| Stress calculation requirements                       4.4 MB         0.0 MB |
|                                               ----------------------------- |
| Approx. total storage required per process          562.4 MB         0.0 MB |
|                                                                             |
| Requirements will fluctuate during execution and may exceed these estimates |
+-----------------------------------------------------------------------------+
Calculating finite basis set correction with  3 cut-off energies.
Calculating total energy with cut-off of  690.000 eV.
------------------------------------------------------------------------ <-- SCF
SCF loop      Energy           Fermi           Energy gain       Timer   <-- SCF
                               energy          per atom          (sec)   <-- SCF
------------------------------------------------------------------------ <-- SCF
Initial  -1.41430521E+003  0.00000000E+000                        13.66  <-- SCF
      1  -1.67039630E+003  8.93861147E+000   1.28045542E+002      16.88  <-- SCF
          Max force change        1.820E-001                             <-- SCF
      2  -1.70375155E+003  7.09415622E+000   1.66776274E+001      19.88  <-- SCF
          Max force change        6.332E-002                             <-- SCF
      3  -1.70443453E+003  7.16291415E+000   3.41489068E-001      22.59  <-- SCF
          Max force change        3.009E-002                             <-- SCF
      4  -1.70430685E+003  6.79569301E+000  -6.38403468E-002      25.84  <-- SCF
          Max force change        1.459E-003                             <-- SCF
      5  -1.70427807E+003  7.15054080E+000  -1.43876485E-002      29.03  <-- SCF
          Max force change        2.086E-004                             <-- SCF
      6  -1.70425868E+003  7.00712747E+000  -9.69547254E-003      32.20  <-- SCF
          Max force change        5.200E-004                             <-- SCF
      7  -1.70425861E+003  7.00049951E+000  -3.90346622E-005      35.54  <-- SCF
          Max force change        1.353E-004                             <-- SCF
      8  -1.70425860E+003  7.00118225E+000  -5.19258816E-007      38.71  <-- SCF
          Max force change        5.556E-005                             <-- SCF
      9  -1.70425860E+003  7.00123573E+000  -1.63920875E-009      40.93  <-- SCF
          Max force change        1.998E-005                             <-- SCF
     10  -1.70425860E+003  7.00121524E+000   4.74670617E-010      43.05  <-- SCF
          Max force change        8.622E-006                             <-- SCF
     11  -1.70425860E+003  7.00120795E+000   2.09783144E-010      45.18  <-- SCF
          Max force change        3.797E-006                             <-- SCF
------------------------------------------------------------------------ <-- SCF
 
Final energy, E             =  -1704.249547872     eV
Final free energy (E-TS)    =  -1704.258604807     eV
(energies not corrected for finite basis set)
 
NB est. 0K energy (E-0.5TS)      =  -1704.254076339     eV
 
Calculating total energy with cut-off of  695.000 eV.
------------------------------------------------------------------------ <-- SCF
SCF loop      Energy           Fermi           Energy gain       Timer   <-- SCF
                               energy          per atom          (sec)   <-- SCF
------------------------------------------------------------------------ <-- SCF
Initial  -1.70424955E+003  0.00000000E+000                        46.44  <-- SCF
      1  -1.70425863E+003  7.00121608E+000   4.54094244E-003      48.95  <-- SCF
          Max force change        1.347E-007                             <-- SCF
      2  -1.70425863E+003  7.00121608E+000   1.35749996E-009      51.10  <-- SCF
          Max force change        3.257E-008                             <-- SCF
      3  -1.70425863E+003  7.00120007E+000   8.78188978E-010      53.25  <-- SCF
          Max force change        2.299E-006                             <-- SCF
      4  -1.70425863E+003  7.00122147E+000   2.28151254E-011      55.39  <-- SCF
          Max force change        3.053E-007                             <-- SCF
------------------------------------------------------------------------ <-- SCF
 
Final energy, E             =  -1704.249572874     eV
Final free energy (E-TS)    =  -1704.258629761     eV
(energies not corrected for finite basis set)
 
NB est. 0K energy (E-0.5TS)      =  -1704.254101317     eV
 
Calculating total energy with cut-off of  700.000 eV.
------------------------------------------------------------------------ <-- SCF
SCF loop      Energy           Fermi           Energy gain       Timer   <-- SCF
                               energy          per atom          (sec)   <-- SCF
------------------------------------------------------------------------ <-- SCF
Initial  -1.70424957E+003  0.00000000E+000                        56.67  <-- SCF
      1  -1.70425866E+003  7.00117881E+000   4.54124943E-003      59.18  <-- SCF
          Max force change        4.173E-008                             <-- SCF
      2  -1.70425866E+003  7.00117881E+000   1.27271663E-009      61.34  <-- SCF
          Max force change        1.301E-008                             <-- SCF
      3  -1.70425866E+003  7.00125294E+000   9.72059685E-010      63.51  <-- SCF
          Max force change        1.590E-008                             <-- SCF
      4  -1.70425866E+003  7.00120721E+000  -6.34183146E-010      65.67  <-- SCF
          Max force change        1.532E-008                             <-- SCF
------------------------------------------------------------------------ <-- SCF
 
Final energy, E             =  -1704.249598454     eV
Final free energy (E-TS)    =  -1704.258655376     eV
(energies not corrected for finite basis set)
 
NB est. 0K energy (E-0.5TS)      =  -1704.254126915     eV
 
 For future reference: finite basis dEtot/dlog(Ecut) =      -0.003510eV
 Total energy corrected for finite basis set =   -1704.258655 eV
 
 ******************* Unconstrained Forces *******************
 *                                                          *
[...]
   ------------------------------------------------------------                
   | "3|1.8|9|10|11|30U:40:31:32(qc=5.5)"                     |                
   ------------------------------------------------------------                
   |      Author: Chris J. Pickard, Cambridge University      |                
   ============================================================                
 
 Pseudo atomic calculation performed for Al 3s2 3p1
 
 Converged in 18 iterations to a total energy of -105.5954 eV
 
 
 Pseudo atomic calculation performed for Ti 3s2 3p6 3d2 4s2
 
 Converged in 38 iterations to a total energy of -1586.0195 eV
 
 Calculation parallelised over 32 processes.
 Data is distributed by k-point(32-way)

 ************************************ Title ************************************
 

 ***************************** General Parameters ******************************
  
 output verbosity                               : normal  (1)
 write checkpoint data to                       : castep.check
 type of calculation                            : single point energy
 stress calculation                             : on
 density difference calculation                 : off
 electron localisation func (ELF) calculation   : off
 Hirshfeld analysis                             : off
 unlimited duration calculation
 timing information                             : on
 memory usage estimate                          : on
 write final potential to formatted file        : off
 write final density to formatted file          : off
 write BibTeX reference list                    : on
 write OTFG pseudopotential files               : on
 write electrostatic potential file             : on
 write bands file                               : on
 checkpoint writing                             : off
  
 output         length unit                     : A
 output           mass unit                     : amu
 output           time unit                     : ps
 output         charge unit                     : e
 output           spin unit                     : hbar/2
 output         energy unit                     : eV
 output          force unit                     : eV/A
 output       velocity unit                     : A/ps
 output       pressure unit                     : GPa
 output     inv_length unit                     : 1/A
 output      frequency unit                     : cm-1
 output force constant unit                     : eV/A**2
 output         volume unit                     : A**3
 output   IR intensity unit                     : (D/A)**2/amu
 output         dipole unit                     : D
 output         efield unit                     : eV/A/e
 output        entropy unit                     : J/mol/K
  
 wavefunctions paging                           : none
 random number generator seed                   : randomised (10254376)
 data distribution                              : optimal for this architecture
 optimization strategy                          : maximize speed(+++)

 *********************** Exchange-Correlation Parameters ***********************
  
 using functional                               : Local Density Approximation
 relativistic treatment                         : Koelling-Harmon
 DFT+D: Semi-empirical dispersion correction    : off

 ************************* Pseudopotential Parameters **************************
  
 pseudopotential representation                 : reciprocal space
 <beta|phi> representation                      : reciprocal space
 spin-orbit coupling                            : off

 **************************** Basis Set Parameters *****************************
  
 plane wave basis set cut-off                   :   700.0000   eV
 size of standard grid                          :     1.7500
 size of   fine   grid                          :     2.0000
 size of   fine   gmax                          :    27.1093   1/A
 finite basis set correction                    : automatic
 number of sample energies                      :          3
           sample  spacing                      :     5.0000   eV

 **************************** Electronic Parameters ****************************
  
 number of  electrons                           :  15.00    
 net charge of system                           :  0.000    
 treating system as non-spin-polarized
 number of bands                                :         12

 ********************* Electronic Minimization Parameters **********************
  
 Method: Treating system as metallic with density mixing treatment of electrons,
         and number of  SD  steps               :          1
         and number of  CG  steps               :          4
  
 total energy / atom convergence tol.           : 0.1000E-06   eV
 eigen-energy convergence tolerance             : 0.2500E-07   eV
 max force / atom convergence tol.              : 0.1000E-02   eV/A
 convergence tolerance window                   :          3   cycles
 max. number of SCF cycles                      :         30
 number of fixed-spin iterations                :         10
 smearing scheme                                : Gaussian
 smearing width                                 : 0.1000       eV
 Fermi energy convergence tolerance             : 0.2721E-13   eV
 periodic dipole correction                     : NONE

 ************************** Density Mixing Parameters **************************
  
 density-mixing scheme                          : Pulay
 max. length of mixing history                  :         20
 charge density mixing amplitude                : 0.8000    
 cut-off energy for mixing                      :  700.0       eV

 *********************** Population Analysis Parameters ************************
  
 Population analysis with cutoff                :  3.000       A

 *******************************************************************************
  
 
                           -------------------------------
                                      Unit Cell
                           -------------------------------
        Real Lattice(A)                      Reciprocal Lattice(1/A)
   2.8179320   0.0000000   0.0000000        2.2297150   0.0000000   0.0000000
   0.0000000   2.7626780   0.0276270        0.0000000   2.2745371  -0.0227451
   0.0000000   0.0398170   3.9817440        0.0000000  -0.0157817   1.5781561
 
                       Lattice parameters(A)       Cell Angles
                    a =    2.817932          alpha =   88.854124
                    b =    2.762816          beta  =   90.000000
                    c =    3.981943          gamma =   90.000000
 
                       Current cell volume =   30.994932       A**3
                                   density =    2.414864   AMU/A**3
                                           =    4.009975     g/cm^3
 
                           -------------------------------
                                     Cell Contents
                           -------------------------------
                         Total number of ions in cell =    2
                      Total number of species in cell =    2
                        Max number of any one species =    1
 
            xxxxxxxxxxxxxxxxxxxxxxxxxxxxxxxxxxxxxxxxxxxxxxxxxxxxxxxxxxxx
            x  Element    Atom        Fractional coordinates of atoms  x
            x            Number           u          v          w      x
            x----------------------------------------------------------x
            x  Al           1         0.000000   0.000000   0.000000   x 
            x  Ti           1         0.500000   0.500000   0.500000   x 
            xxxxxxxxxxxxxxxxxxxxxxxxxxxxxxxxxxxxxxxxxxxxxxxxxxxxxxxxxxxx
 
 
                         No user defined ionic velocities
 
                           -------------------------------
                                   Details of Species
                           -------------------------------
 
                               Mass of species in AMU
                                    Al   26.9815400
                                    Ti   47.8670000
 
                          Electric Quadrupole Moment (Barn)
                                    Al    0.1466000 Isotope 27
                                    Ti    0.3020000 Isotope 47
 
                          Files used for pseudopotentials:
                                    Al 3|2.2|2.2|1.4|4|5|5|30:31:32U2U2
                                    Ti 3|1.8|9|10|11|30U:40:31:32(qc=5.5)
 
                           -------------------------------
                              k-Points For BZ Sampling
                           -------------------------------
                       MP grid size for SCF calculation is 18 19 13
                            with an offset of   0.000  0.000  0.000
                       Number of kpoints used =          2223
 
                           -------------------------------
                               Symmetry and Constraints
                           -------------------------------
 
                      Maximum deviation from symmetry =  0.00000         ANG
 
                      Number of symmetry operations   =           1
                      Number of ionic constraints     =           3
                      Point group of crystal =     1: C1, 1, 1
                      Space group of crystal =    10: P2/m, -P 2y
 
             Set iprint > 1 for details on symmetry rotations/translations
 
                         Centre of mass is constrained
             Set iprint > 1 for details of linear ionic constraints
 
                         Number of cell constraints= 0
                         Cell constraints are:  1 2 3 4 5 6
 
                         External pressure/stress (GPa)
                          0.00000   0.00000   0.00000
                                    0.00000   0.00000
                                              0.00000
  
+---------------- MEMORY AND SCRATCH DISK ESTIMATES PER PROCESS --------------+
|                                                     Memory          Disk    |
| Baseline code, static data and system overhead      388.0 MB         0.0 MB |
| BLAS internal memory storage                          0.0 MB         0.0 MB |
| Model and support data                              131.9 MB         0.0 MB |
| Electronic energy minimisation requirements          41.2 MB         0.0 MB |
| Force calculation requirements                        4.0 MB         0.0 MB |
| Stress calculation requirements                       4.3 MB         0.0 MB |
|                                               ----------------------------- |
| Approx. total storage required per process          561.1 MB         0.0 MB |
|                                                                             |
| Requirements will fluctuate during execution and may exceed these estimates |
+-----------------------------------------------------------------------------+
Calculating finite basis set correction with  3 cut-off energies.
Calculating total energy with cut-off of  690.000 eV.
------------------------------------------------------------------------ <-- SCF
SCF loop      Energy           Fermi           Energy gain       Timer   <-- SCF
                               energy          per atom          (sec)   <-- SCF
------------------------------------------------------------------------ <-- SCF
Initial  -1.41582243E+003  0.00000000E+000                        13.80  <-- SCF
      1  -1.67053742E+003  9.30685739E+000   1.27357494E+002      17.25  <-- SCF
          Max force change        1.504E-001                             <-- SCF
      2  -1.70381617E+003  7.51710411E+000   1.66393757E+001      20.42  <-- SCF
          Max force change        9.103E-002                             <-- SCF
      3  -1.70446258E+003  7.58657109E+000   3.23206936E-001      23.32  <-- SCF
          Max force change        3.006E-002                             <-- SCF
      4  -1.70433102E+003  7.23937691E+000  -6.57788910E-002      26.85  <-- SCF
          Max force change        2.895E-003                             <-- SCF
      5  -1.70430664E+003  7.57305106E+000  -1.21932969E-002      30.32  <-- SCF
          Max force change        1.353E-003                             <-- SCF
      6  -1.70428820E+003  7.43418299E+000  -9.21919881E-003      33.78  <-- SCF
          Max force change        5.406E-004                             <-- SCF
      7  -1.70428812E+003  7.42809146E+000  -3.67523614E-005      37.40  <-- SCF
          Max force change        3.318E-004                             <-- SCF
      8  -1.70428812E+003  7.42873806E+000  -5.43983548E-007      40.78  <-- SCF
          Max force change        1.098E-004                             <-- SCF
      9  -1.70428812E+003  7.42878964E+000  -2.20600994E-009      43.18  <-- SCF
          Max force change        5.030E-005                             <-- SCF
     10  -1.70428812E+003  7.42877193E+000   4.26043464E-010      45.49  <-- SCF
          Max force change        1.739E-005                             <-- SCF
     11  -1.70428812E+003  7.42876351E+000   1.71500137E-010      47.78  <-- SCF
          Max force change        5.936E-006                             <-- SCF
------------------------------------------------------------------------ <-- SCF
 
Final energy, E             =  -1704.279699266     eV
Final free energy (E-TS)    =  -1704.288123000     eV
(energies not corrected for finite basis set)
 
NB est. 0K energy (E-0.5TS)      =  -1704.283911133     eV
 
Calculating total energy with cut-off of  695.000 eV.
------------------------------------------------------------------------ <-- SCF
SCF loop      Energy           Fermi           Energy gain       Timer   <-- SCF
                               energy          per atom          (sec)   <-- SCF
------------------------------------------------------------------------ <-- SCF
Initial  -1.70427970E+003  0.00000000E+000                        49.17  <-- SCF
      1  -1.70428815E+003  7.42876861E+000   4.22436357E-003      51.89  <-- SCF
          Max force change        5.846E-007                             <-- SCF
      2  -1.70428815E+003  7.42876861E+000   1.38476210E-009      54.23  <-- SCF
          Max force change        1.031E-007                             <-- SCF
      3  -1.70428815E+003  7.42875781E+000   8.45996450E-010      56.57  <-- SCF
          Max force change        3.747E-006                             <-- SCF
      4  -1.70428815E+003  7.42877617E+000   5.08506608E-011      58.92  <-- SCF
          Max force change        5.352E-007                             <-- SCF
------------------------------------------------------------------------ <-- SCF
 
Final energy, E             =  -1704.279724282     eV
Final free energy (E-TS)    =  -1704.288147998     eV
(energies not corrected for finite basis set)
 
NB est. 0K energy (E-0.5TS)      =  -1704.283936140     eV
 
Calculating total energy with cut-off of  700.000 eV.
------------------------------------------------------------------------ <-- SCF
SCF loop      Energy           Fermi           Energy gain       Timer   <-- SCF
                               energy          per atom          (sec)   <-- SCF
------------------------------------------------------------------------ <-- SCF
Initial  -1.70427972E+003  0.00000000E+000                        60.27  <-- SCF
      1  -1.70428817E+003  7.42873387E+000   4.22462482E-003      62.86  <-- SCF
          Max force change        3.651E-007                             <-- SCF
      2  -1.70428817E+003  7.42873387E+000   1.28750780E-009      65.11  <-- SCF
          Max force change        1.628E-008                             <-- SCF
      3  -1.70428817E+003  7.42880600E+000   9.04194354E-010      67.37  <-- SCF
          Max force change        5.871E-008                             <-- SCF
      4  -1.70428817E+003  7.42876231E+000  -5.91549797E-010      69.66  <-- SCF
          Max force change        3.162E-008                             <-- SCF
------------------------------------------------------------------------ <-- SCF
 
Final energy, E             =  -1704.279749822     eV
Final free energy (E-TS)    =  -1704.288173534     eV
(energies not corrected for finite basis set)
 
NB est. 0K energy (E-0.5TS)      =  -1704.283961678     eV
 
 For future reference: finite basis dEtot/dlog(Ecut) =      -0.003515eV
 Total energy corrected for finite basis set =   -1704.288174 eV
 
 ******************* Unconstrained Forces *******************
 *                                                          *
 *               Cartesian components (eV/A)                *
 * -------------------------------------------------------- *
 *                         x            y            z      *
 *                                                          *
 * Al              1     -0.00000      0.00000      0.00000 *
 * Ti              1      0.00000     -0.00000     -0.00000 *
 *                                                          *
 ************************************************************
 
 ******************** Constrained Forces ********************
 *                                                          *
 *               Cartesian components (eV/A)                *
 * -------------------------------------------------------- *
 *                         x            y            z      *
 *                                                          *
 * Al              1     -0.00000      0.00000      0.00000 *
 * Ti              1      0.00000     -0.00000     -0.00000 *
 *                                                          *
 ************************************************************
 
 ***************** Stress Tensor *****************
 *                                               *
 *          Cartesian components (GPa)           *
 * --------------------------------------------- *
 *             x             y             z     *
 *                                               *
 *  x      3.268239      0.000000      0.000000  *
 *  y      0.000000      0.649973      2.413631  *
 *  z      0.000000      2.413631      0.837104  *
 *                                               *
 *  Pressure:   -1.5851                          *
 *                                               *
 *************************************************
 
 Pseudo atomic calculation performed for Al 3s2 3p1
 
 Converged in 18 iterations to a total energy of -105.5954 eV
 
 
 Pseudo atomic calculation performed for Ti 3s2 3p6 3d2 4s2
 
 Converged in 38 iterations to a total energy of -1586.0195 eV
 
Charge spilling parameter for spin component 1 = 0.26%
 
     Atomic Populations (Mulliken)
     -----------------------------
Species          Ion     s      p      d      f     Total  Charge (e)
=====================================================================
  Al              1     0.97   2.14   0.00   0.00   3.11    -0.11
  Ti              1     2.29   6.72   2.88   0.00  11.89     0.11
=====================================================================
 
                 Bond                   Population      Length (A)
======================================================================
======================================================================
 
 
 A BibTeX formatted list of references used in this run has been written to 
 castep.bib
 
Initialisation time =     10.05 s
Calculation time    =     62.55 s
Finalisation time   =      0.12 s
Total time          =     72.72 s
Peak Memory Use     = 827836 kB
  
Overall parallel efficiency rating: Very good (82%)                             
  
Data was distributed by:-
k-point (32-way); efficiency rating: Very good (85%)                            
  
Parallel notes:
1) Calculation only took 72.6 s, so efficiency estimates may be inaccurate.     
