54
Lattice="8.47231566 0.0 0.0 0.0 8.47231566 0.0 0.0 0.0 12.194135970000001" Properties=species:S:1:pos:R:3:force:R:3 virial="-36.553403127438195 0.0008522548826394692 0.0006883597129011097 0.0008522548826394692 -36.55435918259499 6.555806789534378e-05 0.0006883597129011097 6.555806789534378e-05 -34.19895614021714" energy=-46014.8450759 pbc="T T T"
Ti       1.41775730       1.41205543       2.04056671      -0.04507981      -0.00011037      -0.05030981 
Ti       4.23615783       1.41205543       2.03236006       0.01092019      -0.00022037       0.00296019 
Ti       7.06026023       1.41205543       2.03236006       0.01020019       0.00094963       0.00289019 
Ti       1.41205543       4.23615783       2.03236006       0.00140019      -0.00067037       0.00312019 
Ti       4.23615783       4.23615783       2.03236006      -0.00046981       0.00090963       0.00169019 
Ti       7.06026023       4.23615783       2.03236006      -0.00223981      -0.00184037       0.00167019 
Ti       1.41205543       7.06026023       2.03236006       0.00228019       0.00064963       0.00307019 
Ti       4.23615783       7.06026023       2.03236006      -0.00137981      -0.00080037       0.00184019 
Ti       7.06026023       7.06026023       2.03236006      -0.00225981       0.00092963       0.00194019 
Ti       1.41205543       1.41205543       6.09706799      -0.00008981      -0.00012037      -0.01045981 
Ti       4.23615783       1.41205543       6.09706799       0.00337019      -0.00042037       0.00390019 
Ti       7.06026023       1.41205543       6.09706799      -0.00182981      -0.00054037       0.00032019 
Ti       1.41205543       4.23615783       6.09706799      -0.00011981       0.00247963       0.00207019 
Ti       4.23615783       4.23615783       6.09706799      -0.00177981      -0.00235037      -0.00361981 
Ti       7.06026023       4.23615783       6.09706799       0.00198019      -0.00071037      -0.00187981 
Ti       1.41205543       7.06026023       6.09706799      -0.00020981      -0.00242037       0.00217019 
Ti       4.23615783       7.06026023       6.09706799      -0.00117981       0.00273963      -0.00383981 
Ti       7.06026023       7.06026023       6.09706799       0.00156019       0.00136963      -0.00158981 
Ti       1.41205543       1.41205543      10.16177591       0.00008019      -0.00063037      -0.00790981 
Ti       4.23615783       1.41205543      10.16177591      -0.00188981      -0.00047037       0.00252019 
Ti       7.06026023       1.41205543      10.16177591       0.00328019      -0.00112037       0.00607019 
Ti       1.41205543       4.23615783      10.16177591      -0.00024981      -0.00303037       0.00396019 
Ti       4.23615783       4.23615783      10.16177591       0.00164019       0.00012963       0.00047019 
Ti       7.06026023       4.23615783      10.16177591      -0.00131981       0.00225963      -0.00137981 
Ti       1.41205543       7.06026023      10.16177591      -0.00079981       0.00372963       0.00430019 
Ti       4.23615783       7.06026023      10.16177591       0.00197019       0.00045963       0.00046019 
Ti       7.06026023       7.06026023      10.16177591      -0.00115981      -0.00129037      -0.00164981 
Al       0.00000000       0.00000000       0.00000000       0.00656019       0.00585963       0.00713019 
Al       2.82410240       0.00000000       0.00000000      -0.00145981       0.00224963       0.00157019 
Al       5.64821326       0.00000000       0.00000000       0.00062019      -0.00018037      -0.00032981 
Al       0.00000000       2.82410240       0.00000000       0.00673019      -0.00586037       0.00678019 
Al       2.82410240       2.82410240       0.00000000      -0.00157981      -0.00221037       0.00188019 
Al       5.64821326       2.82410240       0.00000000       0.00055019       0.00002963      -0.00068981 
Al       0.00000000       5.64821326       0.00000000      -0.00007981       0.00000963       0.00009019 
Al       2.82410240       5.64821326       0.00000000       0.00011019      -0.00002037      -0.00104981 
Al       5.64821326       5.64821326       0.00000000      -0.00002981       0.00014963      -0.00067981 
Al       0.00000000       0.00000000       4.06470793      -0.00159981      -0.00227037       0.00228019 
Al       2.82410240       0.00000000       4.06470793       0.00689019      -0.00611037       0.00824019 
Al       5.64821326       0.00000000       4.06470793       0.00061019       0.00009963       0.00009019 
Al       0.00000000       2.82410240       4.06470793      -0.00138981       0.00229963       0.00258019 
Al       2.82410240       2.82410240       4.06470793       0.00683019       0.00622963       0.00796019 
Al       5.64821326       2.82410240       4.06470793       0.00049019      -0.00021037       0.00051019 
Al       0.00000000       5.64821326       4.06470793       0.00017019      -0.00003037      -0.00042981 
Al       2.82410240       5.64821326       4.06470793      -0.00016981      -0.00006037       0.00071019 
Al       5.64821326       5.64821326       4.06470793       0.00002019       0.00008963       0.00059019 
Al       0.00000000       0.00000000       8.12942804       0.00000019       0.00012963       0.00025019 
Al       2.82410240       0.00000000       8.12942804       0.00013019      -0.00009037       0.00020019 
Al       5.64821326       0.00000000       8.12942804      -0.00016981       0.00000963      -0.00039981 
Al       0.00000000       2.82410240       8.12942804      -0.00006981      -0.00003037       0.00034019 
Al       2.82410240       2.82410240       8.12942804       0.00006019       0.00010963       0.00017019 
Al       5.64821326       2.82410240       8.12942804      -0.00003981       0.00005963      -0.00052981 
Al       0.00000000       5.64821326       8.12942804       0.00006019      -0.00010037      -0.00040981 
Al       2.82410240       5.64821326       8.12942804       0.00020019       0.00002963      -0.00025981 
Al       5.64821326       5.64821326       8.12942804      -0.00006981      -0.00004037       0.00062019 
