54
Lattice="8.290105092730638 0.0 0.0 0.0 8.290105092730638 0.0 0.0 0.0 11.953212538141175" Properties=species:S:1:pos:R:3:force:R:3 virial="3.1537813308457814 0.0001589483476449211 0.000876779595073597 0.0001589483476449211 3.155216993340639 3.076419631837182e-05 0.000876779595073597 3.076419631837182e-05 4.831481140237924" energy=-46015.9603215 pbc="T T T"
Ti       1.38738225       1.38168695       2.00041793      -0.05329981       0.00053000      -0.06234963 
Ti       4.14505255       1.38168695       1.99220607       0.01292019       0.00015000       0.00438037 
Ti       6.90841815       1.38168695       1.99220607       0.01203019      -0.00003000       0.00404037 
Ti       1.38168695       4.14505255       1.99220607       0.00297019       0.00011000       0.00393037 
Ti       4.14505255       4.14505255       1.99220607      -0.00253981       0.00080000       0.00320037 
Ti       6.90841815       4.14505255       1.99220607      -0.00200981      -0.00082000       0.00332037 
Ti       1.38168695       6.90841815       1.99220607       0.00281019      -0.00057000       0.00425037 
Ti       4.14505255       6.90841815       1.99220607      -0.00197981      -0.00098000       0.00297037 
Ti       6.90841815       6.90841815       1.99220607      -0.00222981       0.00099000       0.00287037 
Ti       1.38168695       1.38168695       5.97660627       0.00029019      -0.00027000      -0.00987963 
Ti       4.14505255       1.38168695       5.97660627       0.00315019       0.00057000       0.00528037 
Ti       6.90841815       1.38168695       5.97660627      -0.00186981       0.00132000       0.00195037 
Ti       1.38168695       4.14505255       5.97660627      -0.00072981       0.00242000       0.00363037 
Ti       4.14505255       4.14505255       5.97660627      -0.00046981      -0.00299000      -0.00265963 
Ti       6.90841815       4.14505255       5.97660627       0.00122019      -0.00130000      -0.00073963 
Ti       1.38168695       6.90841815       5.97660627      -0.00003981      -0.00222000       0.00377037 
Ti       4.14505255       6.90841815       5.97660627      -0.00203981       0.00246000      -0.00250963 
Ti       6.90841815       6.90841815       5.97660627       0.00220019      -0.00007000      -0.00073963 
Ti       1.38168695       1.38168695       9.96100646      -0.00110981       0.00008000      -0.01196963 
Ti       4.14505255       1.38168695       9.96100646      -0.00124981      -0.00024000       0.00041037 
Ti       6.90841815       1.38168695       9.96100646       0.00388019       0.00018000       0.00391037 
Ti       1.38168695       4.14505255       9.96100646       0.00035019      -0.00245000       0.00216037 
Ti       4.14505255       4.14505255       9.96100646       0.00080019       0.00134000      -0.00240963 
Ti       6.90841815       4.14505255       9.96100646      -0.00105981       0.00092000      -0.00468963 
Ti       1.38168695       6.90841815       9.96100646       0.00077019       0.00240000       0.00182037 
Ti       4.14505255       6.90841815       9.96100646       0.00075019      -0.00109000      -0.00222963 
Ti       6.90841815       6.90841815       9.96100646      -0.00140981      -0.00109000      -0.00415963 
Al       0.00000000       0.00000000       0.00000000       0.00851019       0.00799000       0.01001037 
Al       2.76336560       0.00000000       0.00000000      -0.00223981       0.00299000       0.00254037 
Al       5.52673949       0.00000000       0.00000000       0.00057019      -0.00020000       0.00003037 
Al       0.00000000       2.76336560       0.00000000       0.00864019      -0.00793000       0.01011037 
Al       2.76336560       2.76336560       0.00000000      -0.00236981      -0.00291000       0.00249037 
Al       5.52673949       2.76336560       0.00000000       0.00057019       0.00015000       0.00002037 
Al       0.00000000       5.52673949       0.00000000      -0.00008981      -0.00009000       0.00036037 
Al       2.76336560       5.52673949       0.00000000       0.00030019      -0.00008000      -0.00019963 
Al       5.52673949       5.52673949       0.00000000      -0.00023981       0.00004000      -0.00046963 
Al       0.00000000       0.00000000       3.98440019      -0.00236981      -0.00304000       0.00233037 
Al       2.76336560       0.00000000       3.98440019       0.00899019      -0.00819000       0.01036037 
Al       5.52673949       0.00000000       3.98440019       0.00049019       0.00020000       0.00015037 
Al       0.00000000       2.76336560       3.98440019      -0.00218981       0.00311000       0.00196037 
Al       2.76336560       2.76336560       3.98440019       0.00884019       0.00830000       0.01025037 
Al       5.52673949       2.76336560       3.98440019       0.00049019      -0.00033000      -0.00028963 
Al       0.00000000       5.52673949       3.98440019       0.00037019      -0.00006000      -0.00029963 
Al       2.76336560       5.52673949       3.98440019      -0.00026981      -0.00012000       0.00015037 
Al       5.52673949       5.52673949       3.98440019      -0.00012981       0.00009000      -0.00014963 
Al       0.00000000       0.00000000       7.96881234       0.00008019      -0.00004000       0.00068037 
Al       2.76336560       0.00000000       7.96881234       0.00006019       0.00013000       0.00074037 
Al       5.52673949       0.00000000       7.96881234      -0.00021981      -0.00013000      -0.00065963 
Al       0.00000000       2.76336560       7.96881234       0.00024019       0.00009000       0.00109037 
Al       2.76336560       2.76336560       7.96881234      -0.00012981      -0.00008000       0.00087037 
Al       5.52673949       2.76336560       7.96881234      -0.00019981      -0.00000000      -0.00015963 
Al       0.00000000       5.52673949       7.96881234       0.00000019      -0.00009000      -0.00059963 
Al       2.76336560       5.52673949       7.96881234      -0.00002981      -0.00007000      -0.00034963 
Al       5.52673949       5.52673949       7.96881234       0.00022019       0.00012000       0.00147037 
