54
Lattice="8.290105092730638 0.0 0.0 0.0 8.290105092730638 0.0 0.0 0.0 11.953212538141175" Properties=species:S:1:pos:R:3:force:R:3 virial="3.1173565224048287 -0.0008460153987552252 0.001010091112453208 -0.0008460153987552252 3.117582126511164 -8.71652229020535e-05 0.001010091112453208 -8.71652229020535e-05 4.804254826496164" energy=-46015.799352 pbc="T T T"
Ti       1.38738225       1.38168695       2.00041793      -0.05370000      -0.00001963      -0.06349056 
Ti       4.14505255       1.38168695       1.99220607       0.01173000       0.00023037       0.00306944 
Ti       6.90841815       1.38168695       1.99220607       0.01350000      -0.00000963       0.00314944 
Ti       1.38168695       4.14505255       1.99220607       0.00253000      -0.00124963       0.00320944 
Ti       4.14505255       4.14505255       1.99220607      -0.00100000       0.00130037       0.00194944 
Ti       6.90841815       4.14505255       1.99220607      -0.00312000      -0.00002963       0.00214944 
Ti       1.38168695       6.90841815       1.99220607       0.00215000       0.00120037       0.00320944 
Ti       4.14505255       6.90841815       1.99220607      -0.00098000      -0.00154963       0.00202944 
Ti       6.90841815       6.90841815       1.99220607      -0.00273000       0.00000037       0.00211944 
Ti       1.38168695       1.38168695       5.97660627       0.00053000      -0.00051963      -0.01221056 
Ti       4.14505255       1.38168695       5.97660627       0.00404000       0.00034037       0.00413944 
Ti       6.90841815       1.38168695       5.97660627      -0.00304000      -0.00012963       0.00028944 
Ti       1.38168695       4.14505255       5.97660627       0.00054000       0.00376037       0.00220944 
Ti       4.14505255       4.14505255       5.97660627      -0.00151000      -0.00255963      -0.00465056 
Ti       6.90841815       4.14505255       5.97660627       0.00103000      -0.00071963      -0.00261056 
Ti       1.38168695       6.90841815       5.97660627       0.00007000      -0.00327963       0.00226944 
Ti       4.14505255       6.90841815       5.97660627      -0.00174000       0.00224037      -0.00468056 
Ti       6.90841815       6.90841815       5.97660627       0.00186000       0.00086037      -0.00259056 
Ti       1.38168695       1.38168695       9.96100646       0.00045000      -0.00053963      -0.00845056 
Ti       4.14505255       1.38168695       9.96100646      -0.00105000      -0.00000963       0.00267944 
Ti       6.90841815       1.38168695       9.96100646       0.00211000      -0.00006963       0.00639944 
Ti       1.38168695       4.14505255       9.96100646       0.00039000      -0.00154963       0.00441944 
Ti       4.14505255       4.14505255       9.96100646       0.00129000       0.00040037       0.00058944 
Ti       6.90841815       4.14505255       9.96100646      -0.00156000       0.00199037      -0.00154056 
Ti       1.38168695       6.90841815       9.96100646       0.00030000       0.00195037       0.00445944 
Ti       4.14505255       6.90841815       9.96100646       0.00113000      -0.00036963       0.00062944 
Ti       6.90841815       6.90841815       9.96100646      -0.00130000      -0.00187963      -0.00148056 
Al       0.00000000       0.00000000       0.00000000       0.00844000       0.00785037       0.00974944 
Al       2.76336560       0.00000000       0.00000000      -0.00220000       0.00290037       0.00227944 
Al       5.52673949       0.00000000       0.00000000       0.00061000      -0.00033963      -0.00032056 
Al       0.00000000       2.76336560       0.00000000       0.00846000      -0.00776963       0.00970944 
Al       2.76336560       2.76336560       0.00000000      -0.00236000      -0.00295963       0.00223944 
Al       5.52673949       2.76336560       0.00000000       0.00075000       0.00028037      -0.00033056 
Al       0.00000000       5.52673949       0.00000000      -0.00029000      -0.00006963       0.00011944 
Al       2.76336560       5.52673949       0.00000000       0.00033000       0.00006037      -0.00056056 
Al       5.52673949       5.52673949       0.00000000      -0.00002000       0.00006037      -0.00069056 
Al       0.00000000       0.00000000       3.98440019      -0.00248000      -0.00298963       0.00287944 
Al       2.76336560       0.00000000       3.98440019       0.00897000      -0.00830963       0.01075944 
Al       5.52673949       0.00000000       3.98440019       0.00065000       0.00020037       0.00048944 
Al       0.00000000       2.76336560       3.98440019      -0.00241000       0.00311037       0.00287944 
Al       2.76336560       2.76336560       3.98440019       0.00877000       0.00832037       0.01073944 
Al       5.52673949       2.76336560       3.98440019       0.00077000      -0.00022963       0.00046944 
Al       0.00000000       5.52673949       3.98440019       0.00023000      -0.00008963       0.00002944 
Al       2.76336560       5.52673949       3.98440019      -0.00023000       0.00001037       0.00067944 
Al       5.52673949       5.52673949       3.98440019       0.00001000       0.00006037       0.00012944 
Al       0.00000000       0.00000000       7.96881234      -0.00013000      -0.00021963       0.00054944 
Al       2.76336560       0.00000000       7.96881234       0.00022000      -0.00015963       0.00056944 
Al       5.52673949       0.00000000       7.96881234      -0.00014000       0.00002037      -0.00058056 
Al       0.00000000       2.76336560       7.96881234      -0.00012000       0.00021037       0.00063944 
Al       2.76336560       2.76336560       7.96881234       0.00015000       0.00014037       0.00057944 
Al       5.52673949       2.76336560       7.96881234      -0.00012000      -0.00001963      -0.00060056 
Al       0.00000000       5.52673949       7.96881234       0.00005000       0.00007037      -0.00055056 
Al       2.76336560       5.52673949       7.96881234       0.00001000       0.00006037      -0.00057056 
Al       5.52673949       5.52673949       7.96881234       0.00016000       0.00001037       0.00144944 
