54
Lattice="8.290105092730638 0.0 0.0 0.0 8.290105092730638 0.0 0.0 0.0 11.953212538141175" Properties=species:S:1:pos:R:3:force:R:3 virial="3.1516278371034954 -8.203785684899153e-05 0.0007383407116409238 -8.203785684899153e-05 3.1525251261627814 5.640102658368168e-05 0.0007383407116409238 5.640102658368168e-05 4.827615106233915" energy=-46015.7993607 pbc="T T T"
Ti       1.38168695       1.38168695       1.99220607       0.00830926       0.00773944       0.01067926 
Ti       4.14505255       1.38168695       1.99220607       0.00011926       0.00042944       0.00060926 
Ti       6.90841815       1.38168695       1.99220607      -0.00140074       0.00387944       0.00287926 
Ti       1.38168695       4.14505255       1.99220607      -0.00009074       0.00024944       0.00019926 
Ti       4.14505255       4.14505255       1.99220607       0.00017926       0.00057944       0.00002926 
Ti       6.90841815       4.14505255       1.99220607      -0.00014074      -0.00039056       0.00060926 
Ti       1.38168695       6.90841815       1.99220607       0.00927926      -0.00800056       0.01062926 
Ti       4.14505255       6.90841815       1.99220607      -0.00037074      -0.00093056       0.00041926 
Ti       6.90841815       6.90841815       1.99220607      -0.00167074      -0.00357056       0.00287926 
Ti       1.38168695       1.38168695       5.97660627      -0.00063074       0.00084944      -0.00106074 
Ti       4.14505255       1.38168695       5.97660627       0.00038926      -0.00119056      -0.00231074 
Ti       6.90841815       1.38168695       5.97660627       0.00017926      -0.00008056      -0.00084074 
Ti       1.38168695       4.14505255       5.97660627      -0.00006074       0.00019944      -0.00181074 
Ti       4.14505255       4.14505255       5.97660627      -0.00134074       0.00073944      -0.00036074 
Ti       6.90841815       4.14505255       5.97660627       0.00156926      -0.00081056      -0.00253074 
Ti       1.38168695       6.90841815       5.97660627       0.00101926      -0.00109056      -0.00105074 
Ti       4.14505255       6.90841815       5.97660627      -0.00068074       0.00034944      -0.00197074 
Ti       6.90841815       6.90841815       5.97660627      -0.00037074       0.00091944      -0.00102074 
Ti       1.38168695       1.38168695       9.96100646      -0.00348074      -0.00220056       0.00395926 
Ti       4.14505255       1.38168695       9.96100646       0.00120926      -0.00210056       0.00123926 
Ti       6.90841815       1.38168695       9.96100646       0.00906926      -0.00841056       0.01128926 
Ti       1.38168695       4.14505255       9.96100646      -0.00024074       0.00040944       0.00131926 
Ti       4.14505255       4.14505255       9.96100646      -0.00212074       0.00159944       0.00114926 
Ti       6.90841815       4.14505255       9.96100646       0.00228926      -0.00083056       0.00137926 
Ti       1.38168695       6.90841815       9.96100646      -0.00096074       0.00178944       0.00401926 
Ti       4.14505255       6.90841815       9.96100646       0.00000926       0.00051944       0.00127926 
Ti       6.90841815       6.90841815       9.96100646       0.00786926       0.00927944       0.01132926 
Al       0.00569530       0.00000000       0.00821186      -0.04344074      -0.00003056      -0.07486074 
Al       2.76336560       0.00000000       0.00000000       0.00731926      -0.00005056       0.00161926 
Al       5.52673949       0.00000000       0.00000000       0.00726926      -0.00007056       0.00161926 
Al       0.00000000       2.76336560       0.00000000       0.00055926      -0.00013056       0.00140926 
Al       2.76336560       2.76336560       0.00000000      -0.00009074       0.00001944      -0.00023074 
Al       5.52673949       2.76336560       0.00000000      -0.00001074      -0.00009056      -0.00030074 
Al       0.00000000       5.52673949       0.00000000       0.00053926       0.00013944       0.00157926 
Al       2.76336560       5.52673949       0.00000000      -0.00008074       0.00007944      -0.00043074 
Al       5.52673949       5.52673949       0.00000000       0.00001926       0.00017944      -0.00023074 
Al       0.00000000       0.00000000       3.98440019      -0.00001074      -0.00014056       0.00141926 
Al       2.76336560       0.00000000       3.98440019       0.00029926       0.00013944       0.00106926 
Al       5.52673949       0.00000000       3.98440019      -0.00016074      -0.00000056       0.00053926 
Al       0.00000000       2.76336560       3.98440019      -0.00013074       0.00025944       0.00090926 
Al       2.76336560       2.76336560       3.98440019       0.00027926      -0.00001056       0.00070926 
Al       5.52673949       2.76336560       3.98440019      -0.00022074       0.00016944       0.00062926 
Al       0.00000000       5.52673949       3.98440019      -0.00028074      -0.00015056       0.00093926 
Al       2.76336560       5.52673949       3.98440019       0.00012926      -0.00011056       0.00079926 
Al       5.52673949       5.52673949       3.98440019       0.00010926      -0.00016056       0.00060926 
Al       0.00000000       0.00000000       7.96881234      -0.00015074       0.00004944       0.00168926 
Al       2.76336560       0.00000000       7.96881234      -0.00019074      -0.00014056       0.00083926 
Al       5.52673949       0.00000000       7.96881234       0.00047926      -0.00004056       0.00128926 
Al       0.00000000       2.76336560       7.96881234      -0.00004074      -0.00047056       0.00107926 
Al       2.76336560       2.76336560       7.96881234      -0.00023074      -0.00007056       0.00077926 
Al       5.52673949       2.76336560       7.96881234       0.00022926      -0.00036056       0.00088926 
Al       0.00000000       5.52673949       7.96881234       0.00002926       0.00041944       0.00098926 
Al       2.76336560       5.52673949       7.96881234      -0.00019074       0.00024944       0.00086926 
Al       5.52673949       5.52673949       7.96881234       0.00003926       0.00039944       0.00083926 
