2
Lattice="3.1120639927938707 0.0 0.0 0.0 3.1120639927938707 0.0 0.0 0.0 3.1120639927938707" Properties=species:S:1:pos:R:3 energy=-3187.163563 Minim_Constant_Volume=F pbc="T T T" n_minim_iter=0
Ti       0.00000000       0.00000000       0.00000000 
Ti       1.55603200       1.55603200       1.55603200 
