2
Lattice="3.217637266967096 0.0 0.0 0.0 3.217637266967096 0.0 0.0 0.0 3.217637266967096" Properties=species:S:1:pos:R:3 energy=-3187.17766288 Minim_Constant_Volume=F pbc="T T T" n_minim_iter=0
Ti       0.00000000       0.00000000       0.00000000 
Ti       1.60881864       1.60881864       1.60881864 
