2
Lattice="3.2429740366644415 0.0 0.0 0.0 3.2429740366644415 0.0 0.0 0.0 3.2429740366644415" Properties=species:S:1:pos:R:3 energy=-3187.13817436 Minim_Constant_Volume=F pbc="T T T" n_minim_iter=0
Ti       0.00000000       0.00000000       0.00000000 
Ti       1.62148702       1.62148702       1.62148702 
