2
Lattice="2.8762573276003454 0.0 0.0 0.0 2.8762573276003454 0.0 0.0 0.0 2.8762573276003454" Properties=species:S:1:pos:R:3 energy=-3185.22836322 Minim_Constant_Volume=F pbc="T T T" n_minim_iter=0
Ti       0.00000000       0.00000000       0.00000000 
Ti       1.43812867       1.43812867       1.43812867 
