2
Lattice="3.3640909782272574 0.0 0.0 0.0 3.3640909782272574 0.0 0.0 0.0 3.3640909782272574" Properties=species:S:1:pos:R:3 energy=-3186.84159248 Minim_Constant_Volume=F pbc="T T T" n_minim_iter=0
Ti       0.00000000       0.00000000       0.00000000 
Ti       1.68204549       1.68204549       1.68204549 
