2
Lattice="3.410180143510717 0.0 0.0 0.0 3.410180143510717 0.0 0.0 0.0 3.410180143510717" Properties=species:S:1:pos:R:3 energy=-3186.7081922 Minim_Constant_Volume=F pbc="T T T" n_minim_iter=0
Ti       0.00000000       0.00000000       0.00000000 
Ti       1.70509007       1.70509007       1.70509007 
