2
Lattice="3.267920971155693 0.0 0.0 0.0 3.267920971155693 0.0 0.0 0.0 3.267920971155693" Properties=species:S:1:pos:R:3 energy=-3187.08899879 Minim_Constant_Volume=F pbc="T T T" n_minim_iter=0
Ti       0.00000000       0.00000000       0.00000000 
Ti       1.63396049       1.63396049       1.63396049 
