2
Lattice="3.3167031029719376 0.0 0.0 0.0 3.3167031029719376 0.0 0.0 0.0 3.3167031029719376" Properties=species:S:1:pos:R:3 energy=-3186.97174225 Minim_Constant_Volume=F pbc="T T T" n_minim_iter=0
Ti       0.00000000       0.00000000       0.00000000 
Ti       1.65835155       1.65835155       1.65835155 
