2
Lattice="2.9078670820125843 0.0 0.0 0.0 2.9078670820125843 0.0 0.0 0.0 2.9078670820125843" Properties=species:S:1:pos:R:3 energy=-3185.60847676 Minim_Constant_Volume=F pbc="T T T" n_minim_iter=0
Ti       0.00000000       0.00000000       0.00000000 
Ti       1.45393354       1.45393354       1.45393354 
