2
Lattice="2.998796248478511 0.0 0.0 0.0 2.998796248478511 0.0 0.0 0.0 2.998796248478511" Properties=species:S:1:pos:R:3 energy=-3186.57949661 Minim_Constant_Volume=F pbc="T T T" n_minim_iter=0
Ti       0.00000000       0.00000000       0.00000000 
Ti       1.49939813       1.49939813       1.49939813 
