2
Lattice="2.82410522 0.0 0.0 0.0 2.82410522 0.0 0.0 0.0 4.06471199" Properties=species:S:1:pos:R:3:tags:I:1 spacegroup="P 1" energy=-1704.05834273 unit_cell=conventional pbc="T T T" n_minim_iter=1
Ti       1.41205261       1.41205261       2.03235600        0 
Al       0.00000000       0.00000000       0.00000000        1 
2
Lattice="2.7742611984245813 -3.721450868720827e-19 -2.4030304746422048e-21 -3.721450868720827e-19 2.7742611984245813 -2.0392131575761334e-18 -3.458662486595864e-21 -2.93502314044994e-18 3.9634149741120748" Properties=species:S:1:pos:R:3:tags:I:1 spacegroup="P 1" stress="-0.007407496057930318 2.272225809431607e-19 -1.0180503795202511e-18 2.272225809431607e-19 -0.007407496057930318 2.047238853579567e-18 -1.0180503795202511e-18 2.047238853579567e-18 0.016669784405346697" unit_cell=conventional pbc="T T T" n_minim_iter=2
Ti       1.38713060       1.38713060       1.98170749        0 
Al      -0.00000000       0.00000000       0.00000000        1 
2
Lattice="2.784116665704959 -7.132378819241254e-19 1.4722882275314474e-18 -7.132378819241254e-19 2.784116665704959 -5.0386636275012894e-18 2.119052636141837e-18 -7.252108142161004e-18 3.926909623045388" Properties=species:S:1:pos:R:3:tags:I:1 spacegroup="P 1" stress="-0.009529961493448976 2.274429597190493e-19 -1.0954104460729088e-19 2.274429597190493e-19 -0.009529961493448971 -0.0 -1.0954104460729088e-19 -0.0 0.012087466804356689" unit_cell=conventional pbc="T T T" n_minim_iter=3
Ti       1.39205833       1.39205833       1.96345481        0 
Al       0.00000000       0.00000000       0.00000000        1 
2
Lattice="2.809184624615437 -1.5083118288457053e-18 2.4262680025568867e-18 -1.5083118288457053e-18 2.809184624615437 -6.581614327758255e-18 3.492108074127043e-18 -9.472864708488011e-18 3.857612235593996" Properties=species:S:1:pos:R:3:tags:I:1 spacegroup="P 1" stress="-0.007406525238749055 9.10488774404201e-19 4.957143912971614e-21 9.10488774404201e-19 -0.007406525238749062 4.558700984626617e-19 4.957143912971614e-21 4.558700984626617e-19 0.010084847032704045" unit_cell=conventional pbc="T T T" n_minim_iter=4
Ti       1.40459231       1.40459231       1.92880612        0 
Al       0.00000000       0.00000000       0.00000000        1 
2
Lattice="2.9172075899663326 -1.0660740416737699e-17 5.6080628948595576e-18 -1.0660740416737699e-17 2.9172075899663326 -1.5954454389722232e-17 8.071639940317009e-18 -2.2963118226810297e-17 3.575137511485967" Properties=species:S:1:pos:R:3:tags:I:1 spacegroup="P 1" stress="-0.00027434557057865177 2.1441646736758216e-19 1.1478332313822576e-18 2.1441646736758216e-19 -0.0002743455705786591 -2.2806719785261507e-18 1.1478332313822576e-18 -2.2806719785261507e-18 0.012673624218256652" unit_cell=conventional pbc="T T T" n_minim_iter=5
Ti       1.45860379       1.45860379       1.78756876        0 
Al       0.00000000       0.00000000       0.00000000        1 
2
Lattice="2.9722593702177553 -1.5170679313028205e-17 5.972685466093848e-18 -1.5170679313028205e-17 2.9722593702177553 -1.775047883531747e-17 8.596438282328024e-18 -2.5548121804808722e-17 3.4349543645530347" Properties=species:S:1:pos:R:3:tags:I:1 spacegroup="P 1" stress="0.0015491574652054588 -7.093364197620986e-19 -4.420720870348881e-19 -7.093364197620986e-19 0.0015491574652054662 -4.801922655314714e-18 -4.420720870348881e-19 -4.801922655314714e-18 0.01589001661559321" unit_cell=conventional pbc="T T T" n_minim_iter=6
Ti       1.48612969       1.48612969       1.71747718        0 
Al       0.00000000       0.00000000       0.00000000        1 
2
Lattice="2.9722593702177553 -1.5170679313028205e-17 5.972685466093848e-18 -1.5170679313028205e-17 2.9722593702177553 -1.775047883531747e-17 8.596438282328024e-18 -2.5548121804808722e-17 3.4349543645530347" Properties=species:S:1:pos:R:3:tags:I:1 spacegroup="P 1" stress="0.0015491574652054588 -7.093364197620986e-19 -4.420720870348881e-19 -7.093364197620986e-19 0.0015491574652054662 -4.801922655314714e-18 -4.420720870348881e-19 -4.801922655314714e-18 0.01589001661559321" unit_cell=conventional pbc="T T T" n_minim_iter=7
Ti       1.48612969       1.48612969       1.71747718        0 
Al       0.00000000       0.00000000       0.00000000        1 
2
Lattice="2.9699404551705784 -1.4097460573619223e-17 6.539158883942146e-18 -1.4097460573619223e-17 2.9699404551705784 -1.1246119369413153e-17 9.411758928753603e-18 -1.6186449399298545e-17 3.407565115908403" Properties=species:S:1:pos:R:3:tags:I:1 spacegroup="P 1" stress="-0.01198994386767186 -2.1015134061083016e-18 -8.987499123827495e-19 -2.1015134061083016e-18 -0.01198994386767183 -9.234440567565961e-19 -8.987499123827495e-19 -9.234440567565961e-19 0.004264752873738085" unit_cell=conventional pbc="T T T" n_minim_iter=8
Ti       1.48497023       1.48497023       1.70378256        0 
Al       0.00000000       0.00000000       0.00000000        1 
2
Lattice="2.986700825412903 -9.046536866245842e-18 8.731886506218586e-18 -9.046536866245842e-18 2.986700825412903 -3.410907931608245e-19 1.2567734206852923e-17 -4.909292425865824e-19 3.3593120490647537" Properties=species:S:1:pos:R:3:tags:I:1 spacegroup="P 1" stress="-0.014237647444942424 -7.110013835792596e-19 1.2065709220596538e-18 -7.110013835792596e-19 -0.014237647444942372 1.157781111076428e-18 1.2065709220596538e-18 1.157781111076428e-18 0.0027123546554317633" unit_cell=conventional pbc="T T T" n_minim_iter=9
Ti       1.49335041       1.49335041       1.67965603        0 
Al       0.00000000       0.00000000       0.00000000        1 
2
Lattice="2.986700825412903 -9.046536866245842e-18 8.731886506218586e-18 -9.046536866245842e-18 2.986700825412903 -3.410907931608245e-19 1.2567734206852923e-17 -4.909292425865824e-19 3.3593120490647537" Properties=species:S:1:pos:R:3:tags:I:1 spacegroup="P 1" stress="-0.014237647444942424 -7.110013835792596e-19 1.2065709220596538e-18 -7.110013835792596e-19 -0.014237647444942372 1.157781111076428e-18 1.2065709220596538e-18 1.157781111076428e-18 0.0027123546554317633" unit_cell=conventional pbc="T T T" n_minim_iter=10
Ti       1.49335041       1.49335041       1.67965603        0 
Al       0.00000000       0.00000000       0.00000000        1 
2
Lattice="3.0032429742034212 -8.268274720834932e-18 7.510712069409677e-18 -8.268274720834932e-18 3.0032429742034212 -1.5335958771998093e-18 1.0810107635425578e-17 -2.2072922445391864e-18 3.355779156786097" Properties=species:S:1:pos:R:3:tags:I:1 spacegroup="P 1" stress="0.001851918718130648 -8.164268891776102e-19 -8.76171485896127e-19 -8.164268891776102e-19 0.0018519187181306187 -2.0632813130091743e-18 -8.76171485896127e-19 -2.0632813130091743e-18 0.01666532075303608" unit_cell=conventional pbc="T T T" n_minim_iter=11
Ti       1.50162149       1.50162149       1.67788958        0 
Al       0.00000000       0.00000000       0.00000000        1 
2
Lattice="3.0150261926990347 -6.3589581340195595e-18 7.55420899894313e-18 -6.3589581340195595e-18 3.0150261926990347 1.2528645448991513e-19 1.0872712417198833e-17 1.8032378898040757e-19 3.3252366045172903" Properties=species:S:1:pos:R:3:tags:I:1 spacegroup="P 1" stress="0.0016919069874519724 -1.0442043674170726e-18 1.5129495575772073e-18 -1.0442043674170726e-18 0.0016919069874519724 -2.2955434409714777e-18 1.5129495575772073e-18 -2.2955434409714777e-18 0.016487731901855172" unit_cell=conventional pbc="T T T" n_minim_iter=12
Ti       1.50751310       1.50751310       1.66261830        0 
Al       0.00000000       0.00000000       0.00000000        1 
2
Lattice="3.039123496272051 -1.7774749556261244e-18 1.486432472758494e-18 -1.7774749556261244e-18 3.039123496272051 4.103579600792022e-18 2.1394103348411352e-18 5.9062492031577865e-18 3.264736913182814" Properties=species:S:1:pos:R:3:tags:I:1 spacegroup="P 1" stress="0.0019851513856445424 -1.2689907079777047e-18 1.0549470117386195e-18 -1.2689907079777047e-18 0.0019851513856444835 5.7528807235554806e-18 1.0549470117386195e-18 5.7528807235554806e-18 0.016060103935358703" unit_cell=conventional pbc="T T T" n_minim_iter=13
Ti       1.51956175       1.51956175       1.63236846        0 
Al       0.00000000       0.00000000       0.00000000        1 
2
Lattice="3.08853754872682 8.794236686872083e-18 -1.0250513495507437e-17 8.794236686872083e-18 3.08853754872682 -1.0225217362001505e-17 -1.4753481851092604e-17 -1.4717073329046745e-17 3.143737557650567" Properties=species:S:1:pos:R:3:tags:I:1 spacegroup="P 1" stress="0.0031488509902939735 -2.4676314570021006e-16 -3.7500078218346196e-16 -2.4676314570021006e-16 0.0031488509902939735 -3.6408680485443115e-16 -3.7500078218346196e-16 -3.6408680485443115e-16 0.011768622116521897" unit_cell=conventional pbc="T T T" n_minim_iter=14
Ti       1.54426877       1.54426877       1.57186878        0 
Al       0.00000000       0.00000000       0.00000000        1 
2
Lattice="3.1043866465442718 2.1375539626242467e-16 2.428979591897942e-16 2.1375539626242472e-16 3.1043866465442718 2.3729772127136235e-16 3.496010842915007e-16 3.4154070677698925e-16 3.1040549230886163" Properties=species:S:1:pos:R:3:tags:I:1 spacegroup="P 1" stress="0.0021731148897700574 5.901558081731413e-17 -5.785735505687575e-17 5.901558081731413e-17 0.002173114889770028 -1.2467739091939814e-16 -5.785735505687575e-17 -1.2467739091939814e-16 0.0021199344128677265" unit_cell=conventional pbc="T T T" n_minim_iter=15
Ti       1.55219332       1.55219332       1.55202746        0 
Al      -0.00000000       0.00000000       0.00000000        1 
