2
Lattice="3.2045966059159254 2.2065544513319724e-16 2.5073873335655665e-16 2.2065544513319732e-16 3.2045966059159254 2.449577191115347e-16 3.608862476561015e-16 3.525656802247997e-16 3.2042541743888218" Properties=species:S:1:pos:R:3:tags:I:1 spacegroup="P 1" energy=-1704.07147252 unit_cell=conventional pbc="T T T" n_minim_iter=0
Ti       1.60229830       1.60229830       1.60212709        0 
Al      -0.00000000       0.00000000       0.00000000        1 
