2
Lattice="2.85151968597842 1.9634400924412343e-16 2.231127727226562e-16 1.9634400924412346e-16 2.85151968597842 2.1796870064376499e-16 3.2112442411332174e-16 3.137206024325936e-16 2.8512149829656184" Properties=species:S:1:pos:R:3:tags:I:1 spacegroup="P 1" energy=-1702.69318295 unit_cell=conventional pbc="T T T" n_minim_iter=0
Ti       1.42575984       1.42575984       1.42560749        0 
Al      -0.00000000       0.00000000       0.00000000        1 
