2
Lattice="3.0247516170262676 2.0827205310027706e-16 2.3666703876901653e-16 2.082720531002771e-16 3.0247516170262676 2.3121046050471915e-16 3.406329705102901e-16 3.327793611836295e-16 3.024428403079958" Properties=species:S:1:pos:R:3:tags:I:1 spacegroup="P 1" energy=-1704.07952917 unit_cell=conventional pbc="T T T" n_minim_iter=0
Ti       1.51237581       1.51237581       1.51221420        0 
Al      -0.00000000       0.00000000       0.00000000        1 
