2
Lattice="2.820522451774353 1.9420966618872303e-16 2.2068744180033787e-16 1.9420966618872305e-16 2.820522451774353 2.1559928797716692e-16 3.1763366477126537e-16 3.1031032578745535e-16 2.820221061013154" Properties=species:S:1:pos:R:3:tags:I:1 spacegroup="P 1" energy=-1702.53509623 unit_cell=conventional pbc="T T T" n_minim_iter=0
Ti       1.41026123       1.41026123       1.41011053        0 
Al      -0.00000000       0.00000000       0.00000000        1 
