2
Lattice="3.2286922219875445 2.2231457092775946e-16 2.5262405778150616e-16 2.2231457092775956e-16 3.2286922219875445 2.467995756318202e-16 3.6359977997807787e-16 3.5521664954026453e-16 3.2283472156906265" Properties=species:S:1:pos:R:3:tags:I:1 spacegroup="P 1" energy=-1704.00534572 unit_cell=conventional pbc="T T T" n_minim_iter=0
Ti       1.61434611       1.61434611       1.61417361        0 
Al      -0.00000000       0.00000000       0.00000000        1 
