2
Lattice="3.2758330649786167 2.255604970062389e-16 2.563125205474971e-16 2.25560497006239e-16 3.2758330649786167 2.504029974649366e-16 3.689085548507053e-16 3.6040302568034894e-16 3.2754830213828314" Properties=species:S:1:pos:R:3:tags:I:1 spacegroup="P 1" energy=-1703.86793805 unit_cell=conventional pbc="T T T" n_minim_iter=0
Ti       1.63791653       1.63791653       1.63774151        0 
Al      -0.00000000       0.00000000       0.00000000        1 
