2
Lattice="3.0517597569605566 2.1013172340274773e-16 2.3878024914468083e-16 2.1013172340274778e-16 3.0517597569605566 2.332749488535913e-16 3.436744972531765e-16 3.357507627041705e-16 3.0514336570227356" Properties=species:S:1:pos:R:3:tags:I:1 spacegroup="P 1" energy=-1704.1716378 unit_cell=conventional pbc="T T T" n_minim_iter=0
Ti       1.52587988       1.52587988       1.52571683        0 
Al      -0.00000000       0.00000000       0.00000000        1 
