2
Lattice="2.8818572787633023 1.98432932083229e-16 2.2548649101653625e-16 1.9843293208322902e-16 2.8818572787633023 2.2028769065898262e-16 3.2454089781326996e-16 3.170583061600579e-16 2.8815493339857787" Properties=species:S:1:pos:R:3:tags:I:1 spacegroup="P 1" energy=-1702.95346448 unit_cell=conventional pbc="T T T" n_minim_iter=0
Ti       1.44092864       1.44092864       1.44077467        0 
Al      -0.00000000       0.00000000       0.00000000        1 
