2
Lattice="3.321654846635781 2.287155979040219e-16 2.598977753878873e-16 2.28715597904022e-16 3.321654846635781 2.5390559092697943e-16 3.740687833838828e-16 3.654442803547272e-16 3.3212999066912205" Properties=species:S:1:pos:R:3:tags:I:1 spacegroup="P 1" energy=-1703.73750373 unit_cell=conventional pbc="T T T" n_minim_iter=0
Ti       1.66082742       1.66082742       1.66064995        0 
Al      -0.00000000       0.00000000       0.00000000        1 
