2
Lattice="3.1300438980536702 2.155220499005922e-16 2.44905471378068e-16 2.1552204990059226e-16 3.1300438980536702 2.392589484026683e-16 3.524904804811185e-16 3.44363485255382e-16 3.129709432957523" Properties=species:S:1:pos:R:3:tags:I:1 spacegroup="P 1" energy=-1704.22072288 unit_cell=conventional pbc="T T T" n_minim_iter=0
Ti       1.56502195       1.56502195       1.56485472        0 
Al      -0.00000000       0.00000000       0.00000000        1 
