2
Lattice="3.0782981303805896 2.1195904750004538e-16 2.408567033618507e-16 2.1195904750004543e-16 3.0782981303805896 2.353035284913218e-16 3.46663121151976e-16 3.386704811048019e-16 3.077969194648797" Properties=species:S:1:pos:R:3:tags:I:1 spacegroup="P 1" energy=-1704.22184173 unit_cell=conventional pbc="T T T" n_minim_iter=0
Ti       1.53914907       1.53914907       1.53898460        0 
Al      -0.00000000       0.00000000       0.00000000        1 
