2
Lattice="3.252433458589996 2.2394929559820806e-16 2.544816543298604e-16 2.2394929559820816e-16 3.252433458589996 2.4861434356744365e-16 3.6627340378968573e-16 3.5782863047311236e-16 3.252085915390964" Properties=species:S:1:pos:R:3:tags:I:1 spacegroup="P 1" energy=-1703.93667808 unit_cell=conventional pbc="T T T" n_minim_iter=0
Ti       1.62621673       1.62621673       1.62604296        0 
Al      -0.00000000       0.00000000       0.00000000        1 
