2
Lattice="3.2989030720063397 2.271490035472902e-16 2.5811759777000286e-16 2.271490035472903e-16 3.2989030720063397 2.521664569565199e-16 3.7150658801789554e-16 3.62941158781253e-16 3.298550563233589" Properties=species:S:1:pos:R:3:tags:I:1 spacegroup="P 1" energy=-1703.80105904 unit_cell=conventional pbc="T T T" n_minim_iter=0
Ti       1.64945154       1.64945154       1.64927528        0 
Al      -0.00000000       0.00000000       0.00000000        1 
