2
Lattice="3.344099141293363 2.302610204446396e-16 2.616538947082206e-16 2.302610204446397e-16 3.344099141293363 2.556212212862699e-16 3.765963518351848e-16 3.679135733691765e-16 3.3437418030331827" Properties=species:S:1:pos:R:3:tags:I:1 spacegroup="P 1" energy=-1703.67832994 unit_cell=conventional pbc="T T T" n_minim_iter=0
Ti       1.67204957       1.67204957       1.67187090        0 
Al      -0.00000000       0.00000000       0.00000000        1 
