2
Lattice="3.1552872776922776 2.1726020601064374e-16 2.468806007982697e-16 2.172602060106438e-16 3.1552872776922776 2.411885393806792e-16 3.5533326841240377e-16 3.4714073007210196e-16 3.1549501151804793" Properties=species:S:1:pos:R:3:tags:I:1 spacegroup="P 1" energy=-1704.18323288 unit_cell=conventional pbc="T T T" n_minim_iter=0
Ti       1.57764364       1.57764364       1.57747506        0 
Al      -0.00000000       0.00000000       0.00000000        1 
