2
Lattice="2.911569242164904 2.0047877663603752e-16 2.278112579014231e-16 2.0047877663603754e-16 2.911569242164904 2.225588578853804e-16 3.278869161429108e-16 3.203271789311773e-16 2.911258122475137" Properties=species:S:1:pos:R:3:tags:I:1 spacegroup="P 1" energy=-1703.24201726 unit_cell=conventional pbc="T T T" n_minim_iter=0
Ti       1.45578462       1.45578462       1.45562906        0 
Al      -0.00000000       0.00000000       0.00000000        1 
