2
Lattice="2.969239009778372 2.0444968149813036e-16 2.323235401829663e-16 2.0444968149813039e-16 2.969239009778372 2.2696710531040996e-16 3.3438140783612507e-16 3.2667193408991187e-16 2.968921727707182" Properties=species:S:1:pos:R:3:tags:I:1 spacegroup="P 1" energy=-1703.752188 unit_cell=conventional pbc="T T T" n_minim_iter=0
Ti       1.48461950       1.48461950       1.48446087        0 
Al      -0.00000000       0.00000000       0.00000000        1 
