 +-------------------------------------------------+
 |                                                 |
 |      CCC   AA    SSS  TTTTT  EEEEE  PPPP        |
 |     C     A  A  S       T    E      P   P       |
 |     C     AAAA   SS     T    EEE    PPPP        |
 |     C     A  A     S    T    E      P           |
 |      CCC  A  A  SSS     T    EEEEE  P           |
 |                                                 |
 +-------------------------------------------------+
 |                                                 |
 | Welcome to Academic Release CASTEP version 17.21|          
 | Ab Initio Total Energy Program                  |
 |                                                 |
 | Authors:                                        |
 | M. Segall, M. Probert, C. Pickard, P. Hasnip,   |
 | S. Clark, K. Refson, J. R. Yates, M. Payne      |
 |                                                 |
 | Contributors:                                   |
 | P. Lindan, P. Haynes, J. White, V. Milman,      |
 | N. Govind, M. Gibson, P. Tulip, V. Cocula,      |
 | B. Montanari, D. Quigley, M. Glover,            |
 | L. Bernasconi, A. Perlov, M. Plummer,           |
 | E. McNellis, J. Meyer, J. Gale, D. Jochym       |
 | J. Aarons, B. Walker, R. Gillen, D. Jones       |
 | T. Green, I. J. Bush, C. J. Armstrong,          |
 | E. J. Higgins, E. L. Brown, M. S. McFly,        |
 | J. Wilkins, B-C. Shih, P. J. P. Byrne           |
 |                                                 |
 | Copyright (c) 2000 - 2017                       |
 |                                                 |
 |     Distributed under the terms of an           |
 |     Agreement between the United Kingdom        |
 |     Car-Parrinello (UKCP) Consortium,           |
 |     Daresbury Laboratory and Accelrys, Inc.     |
 |                                                 |
 | Please cite                                     |
 |                                                 |
 |     "First principles methods using CASTEP"     |
 |                                                 |
 |         Zeitschrift fuer Kristallographie       |
 |           220(5-6) pp. 567-570 (2005)           |
 |                                                 |
 | S. J. Clark, M. D. Segall, C. J. Pickard,       |
 | P. J. Hasnip, M. J. Probert, K. Refson,         |
 | M. C. Payne                                     |
 |                                                 |
 |       in all publications arising from          |
 |              your use of CASTEP                 |
 |                                                 |
 +-------------------------------------------------+


 Compiled for linux_x86_64_gfortran6.0-XT on Fri, 21 Jul 2017 10:20:05 +0100
 from code version 056e886bd5a1+ Castep172_branch Mon, 15 May 2017 14:45:35 +0100
 Compiler: GNU Fortran 6.3.0; Optimisation: fast
 MATHLIBS: Intel MKL(2017.0.0) (LAPACK version 3.6.0)
 FFT Lib : fftw3 version commercial-fftw-3.3.4-sse2-avx
 Fundamental constants values: CODATA 2010

 Run started: Thu, 31 Oct 2019 11:06:01 +0000

 Atomic calculation performed for Ti: 1s2 2s2 2p6 3s2 3p6 3d2 4s2

 Converged in 78 iterations to an ae energy of -23176.516 eV

   ============================================================                
   | Pseudopotential Report - Date of generation 31-10-2019   |                
   ------------------------------------------------------------                
   | Element: Ti Ionic charge: 12.00 Level of theory: LDA     |                
   | Atomic Solver: Koelling-Harmon                           |                
   |                                                          |                
   |               Reference Electronic Structure             |                
   |         Orbital         Occupation         Energy        |                
   |            3s              2.000           -2.288        |                
   |            3p              6.000           -1.425        |                
   |            4s              2.000           -0.169        |                
   |            3d              2.000           -0.164        |                
   |                                                          |                
   |                 Pseudopotential Definition               |                
   |        Beta     l      e      Rc     scheme   norm       |                
   |          1      0   -2.288   1.793     qc      0         |                
   |          2      0   -0.169   1.793     qc      0         |                
   |          3      0    0.250   1.793     qc      0         |                
   |          4      1   -1.425   1.793     qc      0         |                
   |          5      1    0.250   1.793     qc      0         |                
   |          6      2   -0.164   1.793     qc      0         |                
   |          7      2    0.250   1.793     qc      0         |                
   |         loc     3    0.000   1.793     pn      0         |                
   |                                                          |                
   | Augmentation charge Rinner = 1.263                       |                
   | Partial core correction Rc = 1.263                       |                
   ------------------------------------------------------------                
   | "3|1.8|9|10|11|30U:40:31:32(qc=5.5)"                     |                
   ------------------------------------------------------------                
   |      Author: Chris J. Pickard, Cambridge University      |                
   ============================================================                

 Pseudo atomic calculation performed for Ti 3s2 3p6 3d2 4s2

 Converged in 31 iterations to a total energy of -1585.9998 eV

 Calculation parallelised over 48 processes.
 Data is distributed by G-vector(3-way) and k-point(16-way)

 ************************************ Title ************************************
 

 ***************************** General Parameters ******************************
  
 output verbosity                               : normal  (1)
 write checkpoint data to                       : castep.check
 type of calculation                            : single point energy
 stress calculation                             : on
 density difference calculation                 : off
 electron localisation func (ELF) calculation   : off
 Hirshfeld analysis                             : off
 unlimited duration calculation
 timing information                             : on
 memory usage estimate                          : on
 write final potential to formatted file        : off
 write final density to formatted file          : off
 write BibTeX reference list                    : on
 write OTFG pseudopotential files               : on
 write electrostatic potential file             : on
 write bands file                               : on
 checkpoint writing                             : off
  
 output         length unit                     : A
 output           mass unit                     : amu
 output           time unit                     : ps
 output         charge unit                     : e
 output           spin unit                     : hbar/2
 output         energy unit                     : eV
 output          force unit                     : eV/A
 output       velocity unit                     : A/ps
 output       pressure unit                     : GPa
 output     inv_length unit                     : 1/A
 output      frequency unit                     : cm-1
 output force constant unit                     : eV/A**2
 output         volume unit                     : A**3
 output   IR intensity unit                     : (D/A)**2/amu
 output         dipole unit                     : D
 output         efield unit                     : eV/A/e
 output        entropy unit                     : J/mol/K
  
 wavefunctions paging                           : none
 random number generator seed                   : randomised (110601939)
 data distribution                              : optimal for this architecture
 optimization strategy                          : balance speed and memory

 *********************** Exchange-Correlation Parameters ***********************
  
 using functional                               : Local Density Approximation
 relativistic treatment                         : Koelling-Harmon
 DFT+D: Semi-empirical dispersion correction    : off

 ************************* Pseudopotential Parameters **************************
  
 pseudopotential representation                 : reciprocal space
 <beta|phi> representation                      : reciprocal space
 spin-orbit coupling                            : off

 **************************** Basis Set Parameters *****************************
  
 plane wave basis set cut-off                   :   600.0000   eV
 size of standard grid                          :     1.7500
 size of   fine   gmax                          :    21.9610   1/A
 finite basis set correction                    : automatic
 number of sample energies                      :          3
           sample  spacing                      :     5.0000   eV

 **************************** Electronic Parameters ****************************
  
 number of  electrons                           :  648.0    
 net charge of system                           :  0.000    
 treating system as non-spin-polarized
 number of bands                                :        389

 ********************* Electronic Minimization Parameters **********************
  
 Method: Treating system as metallic with density mixing treatment of electrons,
         and number of  SD  steps               :          1
         and number of  CG  steps               :          4
  
 total energy / atom convergence tol.           : 0.1000E-04   eV
 eigen-energy convergence tolerance             : 0.1000E-05   eV
 max force / atom convergence tol.              : ignored
 convergence tolerance window                   :          3   cycles
 max. number of SCF cycles                      :        250
 number of fixed-spin iterations                :         10
 smearing scheme                                : Gaussian
 smearing width                                 : 0.1000       eV
 Fermi energy convergence tolerance             : 0.2721E-13   eV
 periodic dipole correction                     : NONE

 ************************** Density Mixing Parameters **************************
  
 density-mixing scheme                          : Pulay
 max. length of mixing history                  :         20
 charge density mixing amplitude                : 0.8000    
 cut-off energy for mixing                      :  600.0       eV

 *********************** Population Analysis Parameters ************************
  
 Population analysis with cutoff                :  3.000       A

 *******************************************************************************
  

                           -------------------------------
                                      Unit Cell
                           -------------------------------
        Real Lattice(A)                      Reciprocal Lattice(1/A)
   8.5763590   0.0000000   0.0000000        0.7326169   0.4229765   0.0000000
  -4.2881790   7.4273440   0.0000000        0.0000000   0.8459532   0.0000000
   0.0000000   0.0000000  13.5844380        0.0000000   0.0000000   0.4625282

                       Lattice parameters(A)       Cell Angles
                    a =    8.576359          alpha =   90.000000
                    b =    8.576358          beta  =   90.000000
                    c =   13.584438          gamma =  120.000000

                       Current cell volume =  865.322840       A**3
                                   density =    2.987114   AMU/A**3
                                           =    4.960219     g/cm^3

                           -------------------------------
                                     Cell Contents
                           -------------------------------
                         Total number of ions in cell =   54
                      Total number of species in cell =    1
                        Max number of any one species =   54

            xxxxxxxxxxxxxxxxxxxxxxxxxxxxxxxxxxxxxxxxxxxxxxxxxxxxxxxxxxxx
            x  Element    Atom        Fractional coordinates of atoms  x
            x            Number           u          v          w      x
            x----------------------------------------------------------x
            x  Ti           1         0.000622   0.000000   0.000622   x 
            x  Ti           2         0.333333   0.000000   0.000000   x 
            x  Ti           3         0.666667   0.000000   0.000000   x 
            x  Ti           4        -0.000000   0.333333   0.000000   x 
            x  Ti           5         0.333333   0.333333   0.000000   x 
            x  Ti           6         0.666667   0.333333   0.000000   x 
            x  Ti           7         0.000000   0.666667   0.000000   x 
            x  Ti           8         0.333333   0.666667   0.000000   x 
            x  Ti           9         0.666667   0.666667   0.000000   x 
            x  Ti          10         0.000000   0.000000   0.333333   x 
            x  Ti          11         0.333333   0.000000   0.333333   x 
            x  Ti          12         0.666667   0.000000   0.333333   x 
            x  Ti          13        -0.000000   0.333333   0.333333   x 
            x  Ti          14         0.333333   0.333333   0.333333   x 
            x  Ti          15         0.666667   0.333333   0.333333   x 
            x  Ti          16         0.000000   0.666667   0.333333   x 
            x  Ti          17         0.333333   0.666667   0.333333   x 
            x  Ti          18         0.666667   0.666667   0.333333   x 
            x  Ti          19         0.000000   0.000000   0.666667   x 
            x  Ti          20         0.333333   0.000000   0.666667   x 
            x  Ti          21         0.666667   0.000000   0.666667   x 
            x  Ti          22        -0.000000   0.333333   0.666667   x 
            x  Ti          23         0.333333   0.333333   0.666667   x 
            x  Ti          24         0.666667   0.333333   0.666667   x 
            x  Ti          25         0.000000   0.666667   0.666667   x 
            x  Ti          26         0.333333   0.666667   0.666667   x 
            x  Ti          27         0.666667   0.666667   0.666667   x 
            x  Ti          28         0.111111   0.222222   0.166667   x 
            x  Ti          29         0.444444   0.222222   0.166667   x 
            x  Ti          30         0.777778   0.222222   0.166667   x 
            x  Ti          31         0.111111   0.555556   0.166667   x 
            x  Ti          32         0.444444   0.555556   0.166667   x 
            x  Ti          33         0.777778   0.555556   0.166667   x 
            x  Ti          34         0.111111   0.888889   0.166667   x 
            x  Ti          35         0.444444   0.888889   0.166667   x 
            x  Ti          36         0.777778   0.888889   0.166667   x 
            x  Ti          37         0.111111   0.222222   0.500000   x 
            x  Ti          38         0.444444   0.222222   0.500000   x 
            x  Ti          39         0.777778   0.222222   0.500000   x 
            x  Ti          40         0.111111   0.555556   0.500000   x 
            x  Ti          41         0.444444   0.555556   0.500000   x 
            x  Ti          42         0.777778   0.555556   0.500000   x 
            x  Ti          43         0.111111   0.888889   0.500000   x 
            x  Ti          44         0.444444   0.888889   0.500000   x 
            x  Ti          45         0.777778   0.888889   0.500000   x 
            x  Ti          46         0.111111   0.222222   0.833333   x 
            x  Ti          47         0.444444   0.222222   0.833333   x 
            x  Ti          48         0.777778   0.222222   0.833333   x 
            x  Ti          49         0.111111   0.555556   0.833333   x 
            x  Ti          50         0.444444   0.555556   0.833333   x 
            x  Ti          51         0.777778   0.555556   0.833333   x 
            x  Ti          52         0.111111   0.888889   0.833333   x 
            x  Ti          53         0.444444   0.888889   0.833333   x 
            x  Ti          54         0.777778   0.888889   0.833333   x 
            xxxxxxxxxxxxxxxxxxxxxxxxxxxxxxxxxxxxxxxxxxxxxxxxxxxxxxxxxxxx


                         No user defined ionic velocities

                           -------------------------------
                                   Details of Species
                           -------------------------------

                               Mass of species in AMU
                                    Ti   47.8670000

                          Electric Quadrupole Moment (Barn)
                                    Ti    0.3020000 Isotope 47

                          Files used for pseudopotentials:
                                    Ti 3|1.8|9|10|11|30U:40:31:32(qc=5.5)

                           -------------------------------
                              k-Points For BZ Sampling
                           -------------------------------
                       MP grid size for SCF calculation is  4  4  2
                            with an offset of   0.000  0.000  0.000
                       Number of kpoints used =            16

                           -------------------------------
                               Symmetry and Constraints
                           -------------------------------

                      Maximum deviation from symmetry =  0.00000         ANG

                      Number of symmetry operations   =           1
                      Number of ionic constraints     =           3
                      Point group of crystal =     1: C1, 1, 1
                      Space group of crystal =     1: P1, P 1

             Set iprint > 1 for details on symmetry rotations/translations

                         Centre of mass is constrained
             Set iprint > 1 for details of linear ionic constraints

                         Number of cell constraints= 0
                         Cell constraints are:  1 2 3 4 5 6

                         External pressure/stress (GPa)
                          0.00000   0.00000   0.00000
                                    0.00000   0.00000
                                              0.00000
  
+---------------- MEMORY AND SCRATCH DISK ESTIMATES PER PROCESS --------------+
|                                                     Memory          Disk    |
| Baseline code, static data and system overhead      172.0 MB         0.0 MB |
| BLAS internal memory storage                          0.0 MB         0.0 MB |
| Model and support data                              265.7 MB       168.9 MB |
| Electronic energy minimisation requirements         294.4 MB         0.0 MB |
| Force calculation requirements                       17.0 MB         0.0 MB |
| Stress calculation requirements                      18.8 MB         0.0 MB |
|                                               ----------------------------- |
| Approx. total storage required per process          732.1 MB       168.9 MB |
|                                                                             |
| Requirements will fluctuate during execution and may exceed these estimates |
+-----------------------------------------------------------------------------+
Calculating finite basis set correction with  3 cut-off energies.
Calculating total energy with cut-off of  590.000 eV.
------------------------------------------------------------------------ <-- SCF
SCF loop      Energy           Fermi           Energy gain       Timer   <-- SCF
                               energy          per atom          (sec)   <-- SCF
------------------------------------------------------------------------ <-- SCF
Initial  -7.81841635E+004  0.00000000E+000                        19.57  <-- SCF
      1  -8.39522445E+004  1.16652589E+001   1.06816315E+002     113.13  <-- SCF
      2  -8.59427115E+004  1.02220469E+001   3.68604998E+001     181.40  <-- SCF
      3  -8.60602328E+004  9.97232348E+000   2.17632065E+000     260.51  <-- SCF
      4  -8.60590985E+004  9.22150673E+000  -2.10064758E-002     337.07  <-- SCF
      5  -8.60573592E+004  9.47230870E+000  -3.22092448E-002     431.09  <-- SCF
      6  -8.60579900E+004  9.45125816E+000   1.16820107E-002     517.10  <-- SCF
      7  -8.60574795E+004  9.44982803E+000  -9.45323955E-003     598.23  <-- SCF
      8  -8.60574883E+004  9.45113845E+000   1.61696054E-004     671.68  <-- SCF
      9  -8.60574849E+004  9.45438360E+000  -6.13293027E-005     742.28  <-- SCF
     10  -8.60574849E+004  9.45470471E+000  -1.09604286E-006     806.79  <-- SCF
     11  -8.60574846E+004  9.45467709E+000  -5.35059851E-006     862.42  <-- SCF
------------------------------------------------------------------------ <-- SCF
 
Final energy, E             =  -86057.22124439     eV
Final free energy (E-TS)    =  -86057.48459633     eV
(energies not corrected for finite basis set)
 
NB est. 0K energy (E-0.5TS)      =  -86057.35292036     eV
 
Calculating total energy with cut-off of  595.000 eV.
------------------------------------------------------------------------ <-- SCF
SCF loop      Energy           Fermi           Energy gain       Timer   <-- SCF
                               energy          per atom          (sec)   <-- SCF
------------------------------------------------------------------------ <-- SCF
Initial  -8.60572210E+004  0.00000000E+000                       877.50  <-- SCF
      1  -8.60574888E+004  9.45450883E+000   4.95990529E-003     958.16  <-- SCF
      2  -8.60574889E+004  9.45450833E+000   1.21452202E-006    1011.78  <-- SCF
      3  -8.60575581E+004  9.45392055E+000   1.28152611E-003    1090.90  <-- SCF
      4  -8.60574843E+004  9.45476444E+000  -1.36695082E-003    1170.42  <-- SCF
      5  -8.60574854E+004  9.45470547E+000   2.10120046E-005    1242.21  <-- SCF
      6  -8.60574855E+004  9.45460622E+000   6.50382257E-007    1297.13  <-- SCF
      7  -8.60574855E+004  9.45459449E+000   8.98869536E-008    1348.71  <-- SCF
------------------------------------------------------------------------ <-- SCF
 
Final energy, E             =  -86057.22209664     eV
Final free energy (E-TS)    =  -86057.48545533     eV
(energies not corrected for finite basis set)
 
NB est. 0K energy (E-0.5TS)      =  -86057.35377599     eV
 
Calculating total energy with cut-off of  600.000 eV.
------------------------------------------------------------------------ <-- SCF
SCF loop      Energy           Fermi           Energy gain       Timer   <-- SCF
                               energy          per atom          (sec)   <-- SCF
------------------------------------------------------------------------ <-- SCF
Initial  -8.60572221E+004  0.00000000E+000                      1363.62  <-- SCF
      1  -8.60574867E+004  9.45460279E+000   4.90075011E-003    1437.47  <-- SCF
      2  -8.60574867E+004  9.45460259E+000   5.53299416E-007    1488.90  <-- SCF
      3  -8.60574948E+004  9.45451612E+000   1.48881166E-004    1560.75  <-- SCF
      4  -8.60574861E+004  9.45462409E+000  -1.60264080E-004    1630.88  <-- SCF
      5  -8.60574862E+004  9.45461968E+000   1.30895905E-006    1688.64  <-- SCF
      6  -8.60574862E+004  9.45461299E+000   4.93017759E-007    1739.56  <-- SCF
------------------------------------------------------------------------ <-- SCF
 
Final energy, E             =  -86057.22285259     eV
Final free energy (E-TS)    =  -86057.48621026     eV
(energies not corrected for finite basis set)
 
NB est. 0K energy (E-0.5TS)      =  -86057.35453142     eV
 
 For future reference: finite basis dEtot/dlog(Ecut) =      -0.096310eV
 Total energy corrected for finite basis set =  -86057.486210 eV

 ******************* Unconstrained Forces *******************
 *                                                          *
 *               Cartesian components (eV/A)                *
 * -------------------------------------------------------- *
 *                         x            y            z      *
 *                                                          *
 * Ti              1     -0.02866     -0.00362     -0.05877 *
 * Ti              2      0.01374     -0.00724      0.00181 *
 * Ti              3      0.01465     -0.00068      0.00296 *
 * Ti              4      0.00946     -0.00875      0.00182 *
 * Ti              5      0.00805      0.00292      0.00224 *
 * Ti              6      0.00741     -0.00310      0.00085 *
 * Ti              7      0.00951     -0.00352      0.00145 *
 * Ti              8      0.00643     -0.00440      0.00197 *
 * Ti              9      0.00901     -0.00354      0.00205 *
 * Ti             10      0.00413     -0.00299      0.00755 *
 * Ti             11      0.00720     -0.00305      0.00032 *
 * Ti             12      0.00686     -0.00377      0.00037 *
 * Ti             13      0.00632     -0.00358     -0.00002 *
 * Ti             14      0.00626     -0.00302      0.00063 *
 * Ti             15      0.00585     -0.00354      0.00034 *
 * Ti             16      0.00652     -0.00483     -0.00026 *
 * Ti             17      0.00603     -0.00381     -0.00052 *
 * Ti             18      0.00574     -0.00323      0.00010 *
 * Ti             19      0.00444     -0.00345      0.00674 *
 * Ti             20      0.00613     -0.00322     -0.00055 *
 * Ti             21      0.00805     -0.00381     -0.00105 *
 * Ti             22      0.00672     -0.00434     -0.00018 *
 * Ti             23      0.00561     -0.00397     -0.00065 *
 * Ti             24      0.00584     -0.00346     -0.00062 *
 * Ti             25      0.00573     -0.00373      0.00029 *
 * Ti             26      0.00609     -0.00382     -0.00050 *
 * Ti             27      0.00632     -0.00221     -0.00037 *
 * Ti             28     -0.00653      0.01372      0.00775 *
 * Ti             29     -0.00951      0.00282     -0.00266 *
 * Ti             30     -0.00568      0.00294     -0.00004 *
 * Ti             31     -0.00578      0.00352     -0.00079 *
 * Ti             32     -0.00615      0.00311      0.00036 *
 * Ti             33     -0.00751      0.00538     -0.00176 *
 * Ti             34      0.00592     -0.00362      0.01234 *
 * Ti             35     -0.00658      0.00320      0.00038 *
 * Ti             36     -0.01099      0.00076      0.00299 *
 * Ti             37     -0.00645      0.00341      0.00025 *
 * Ti             38     -0.00617      0.00358      0.00094 *
 * Ti             39     -0.00558      0.00329      0.00107 *
 * Ti             40     -0.00592      0.00305     -0.00104 *
 * Ti             41     -0.00616      0.00339     -0.00099 *
 * Ti             42     -0.00629      0.00357      0.00111 *
 * Ti             43     -0.00652      0.00385      0.00056 *
 * Ti             44     -0.00554      0.00379     -0.00102 *
 * Ti             45     -0.00604      0.00401      0.00029 *
 * Ti             46     -0.00622     -0.00573      0.00652 *
 * Ti             47     -0.00654      0.00454     -0.00092 *
 * Ti             48     -0.00836      0.00539     -0.00373 *
 * Ti             49     -0.00558      0.00394      0.00045 *
 * Ti             50     -0.00647      0.00292     -0.00046 *
 * Ti             51     -0.00710      0.00211     -0.00179 *
 * Ti             52     -0.01080      0.00598      0.00210 *
 * Ti             53     -0.00735      0.00252     -0.00074 *
 * Ti             54      0.00644      0.01032      0.01080 *
 *                                                          *
 ************************************************************

 ******************** Constrained Forces ********************
 *                                                          *
 *               Cartesian components (eV/A)                *
 * -------------------------------------------------------- *
 *                         x            y            z      *
 *                                                          *
 * Ti              1     -0.02866     -0.00362     -0.05877 *
 * Ti              2      0.01374     -0.00724      0.00181 *
 * Ti              3      0.01465     -0.00068      0.00296 *
 * Ti              4      0.00946     -0.00875      0.00182 *
 * Ti              5      0.00805      0.00292      0.00224 *
 * Ti              6      0.00741     -0.00310      0.00085 *
 * Ti              7      0.00951     -0.00352      0.00145 *
 * Ti              8      0.00643     -0.00440      0.00197 *
 * Ti              9      0.00901     -0.00354      0.00205 *
 * Ti             10      0.00413     -0.00299      0.00755 *
 * Ti             11      0.00720     -0.00305      0.00032 *
 * Ti             12      0.00686     -0.00377      0.00037 *
 * Ti             13      0.00632     -0.00358     -0.00002 *
 * Ti             14      0.00626     -0.00302      0.00063 *
 * Ti             15      0.00585     -0.00354      0.00034 *
 * Ti             16      0.00652     -0.00483     -0.00026 *
 * Ti             17      0.00603     -0.00381     -0.00052 *
 * Ti             18      0.00574     -0.00323      0.00010 *
 * Ti             19      0.00444     -0.00345      0.00674 *
 * Ti             20      0.00613     -0.00322     -0.00055 *
 * Ti             21      0.00805     -0.00381     -0.00105 *
 * Ti             22      0.00672     -0.00434     -0.00018 *
 * Ti             23      0.00561     -0.00397     -0.00065 *
 * Ti             24      0.00584     -0.00346     -0.00062 *
 * Ti             25      0.00573     -0.00373      0.00029 *
 * Ti             26      0.00609     -0.00382     -0.00050 *
 * Ti             27      0.00632     -0.00221     -0.00037 *
 * Ti             28     -0.00653      0.01372      0.00775 *
 * Ti             29     -0.00951      0.00282     -0.00266 *
 * Ti             30     -0.00568      0.00294     -0.00004 *
 * Ti             31     -0.00578      0.00352     -0.00079 *
 * Ti             32     -0.00615      0.00311      0.00036 *
 * Ti             33     -0.00751      0.00538     -0.00176 *
 * Ti             34      0.00592     -0.00362      0.01234 *
 * Ti             35     -0.00658      0.00320      0.00038 *
 * Ti             36     -0.01099      0.00076      0.00299 *
 * Ti             37     -0.00645      0.00341      0.00025 *
 * Ti             38     -0.00617      0.00358      0.00094 *
 * Ti             39     -0.00558      0.00329      0.00107 *
 * Ti             40     -0.00592      0.00305     -0.00104 *
 * Ti             41     -0.00616      0.00339     -0.00099 *
 * Ti             42     -0.00629      0.00357      0.00111 *
 * Ti             43     -0.00652      0.00385      0.00056 *
 * Ti             44     -0.00554      0.00379     -0.00102 *
 * Ti             45     -0.00604      0.00401      0.00029 *
 * Ti             46     -0.00622     -0.00573      0.00652 *
 * Ti             47     -0.00654      0.00454     -0.00092 *
 * Ti             48     -0.00836      0.00539     -0.00373 *
 * Ti             49     -0.00558      0.00394      0.00045 *
 * Ti             50     -0.00647      0.00292     -0.00046 *
 * Ti             51     -0.00710      0.00211     -0.00179 *
 * Ti             52     -0.01080      0.00598      0.00210 *
 * Ti             53     -0.00735      0.00252     -0.00074 *
 * Ti             54      0.00644      0.01032      0.01080 *
 *                                                          *
 ************************************************************

 ***************** Stress Tensor *****************
 *                                               *
 *          Cartesian components (GPa)           *
 * --------------------------------------------- *
 *             x             y             z     *
 *                                               *
 *  x     -0.715210      0.172825      0.000257  *
 *  y      0.172825     -0.518494     -0.000264  *
 *  z      0.000257     -0.000264     -0.484542  *
 *                                               *
 *  Pressure:    0.5727                          *
 *                                               *
 *************************************************

 Pseudo atomic calculation performed for Ti 3s2 3p6 3d2 4s2

 Converged in 31 iterations to a total energy of -1585.9998 eV

Charge spilling parameter for spin component 1 = 0.07%

     Atomic Populations (Mulliken)
     -----------------------------
Species          Ion     s      p      d      f     Total  Charge (e)
=====================================================================
  Ti              1     2.31   6.92   2.77   0.00  12.00    -0.00
  Ti              2     2.31   6.92   2.77   0.00  12.00    -0.00
  Ti              3     2.31   6.92   2.77   0.00  12.00     0.00
  Ti              4     2.31   6.92   2.77   0.00  12.00     0.00
  Ti              5     2.31   6.92   2.77   0.00  12.00     0.00
  Ti              6     2.31   6.92   2.77   0.00  12.00     0.00
  Ti              7     2.31   6.92   2.77   0.00  12.00     0.00
  Ti              8     2.31   6.92   2.77   0.00  12.00     0.00
  Ti              9     2.31   6.92   2.77   0.00  12.00    -0.00
  Ti             10     2.31   6.92   2.77   0.00  12.00    -0.00
  Ti             11     2.31   6.92   2.77   0.00  12.00    -0.00
  Ti             12     2.31   6.92   2.77   0.00  12.00     0.00
  Ti             13     2.31   6.92   2.77   0.00  12.00    -0.00
  Ti             14     2.31   6.92   2.77   0.00  12.00    -0.00
  Ti             15     2.31   6.92   2.77   0.00  12.00     0.00
  Ti             16     2.31   6.92   2.77   0.00  12.00     0.00
  Ti             17     2.31   6.92   2.77   0.00  12.00     0.00
  Ti             18     2.31   6.92   2.77   0.00  12.00    -0.00
  Ti             19     2.31   6.92   2.77   0.00  12.00    -0.00
  Ti             20     2.31   6.92   2.77   0.00  12.00    -0.00
  Ti             21     2.31   6.92   2.77   0.00  12.00    -0.00
  Ti             22     2.31   6.92   2.77   0.00  12.00    -0.00
  Ti             23     2.31   6.92   2.77   0.00  12.00    -0.00
  Ti             24     2.31   6.92   2.77   0.00  12.00    -0.00
  Ti             25     2.31   6.92   2.77   0.00  12.00    -0.00
  Ti             26     2.31   6.92   2.77   0.00  12.00     0.00
  Ti             27     2.31   6.92   2.77   0.00  12.00    -0.00
  Ti             28     2.31   6.92   2.77   0.00  12.00    -0.00
  Ti             29     2.31   6.92   2.77   0.00  12.00     0.00
  Ti             30     2.31   6.92   2.77   0.00  12.00     0.00
  Ti             31     2.31   6.92   2.77   0.00  12.00    -0.00
  Ti             32     2.31   6.92   2.77   0.00  12.00    -0.00
  Ti             33     2.31   6.92   2.77   0.00  12.00     0.00
  Ti             34     2.31   6.92   2.77   0.00  12.00     0.00
  Ti             35     2.31   6.92   2.77   0.00  12.00    -0.00
  Ti             36     2.31   6.92   2.77   0.00  12.00     0.00
  Ti             37     2.31   6.92   2.77   0.00  12.00    -0.00
  Ti             38     2.31   6.92   2.77   0.00  12.00     0.00
  Ti             39     2.31   6.92   2.77   0.00  12.00    -0.00
  Ti             40     2.31   6.92   2.77   0.00  12.00    -0.00
  Ti             41     2.31   6.92   2.77   0.00  12.00     0.00
  Ti             42     2.31   6.92   2.77   0.00  12.00     0.00
  Ti             43     2.31   6.92   2.77   0.00  12.00    -0.00
  Ti             44     2.31   6.92   2.77   0.00  12.00    -0.00
  Ti             45     2.31   6.92   2.77   0.00  12.00    -0.00
  Ti             46     2.31   6.92   2.77   0.00  12.00     0.00
  Ti             47     2.31   6.92   2.77   0.00  12.00    -0.00
  Ti             48     2.31   6.92   2.77   0.00  12.00    -0.00
  Ti             49     2.31   6.92   2.77   0.00  12.00     0.00
  Ti             50     2.31   6.92   2.77   0.00  12.00     0.00
  Ti             51     2.31   6.92   2.77   0.00  12.00    -0.00
  Ti             52     2.31   6.92   2.77   0.00  12.00     0.00
  Ti             53     2.31   6.92   2.77   0.00  12.00     0.00
  Ti             54     2.31   6.92   2.77   0.00  12.00     0.00
=====================================================================

                 Bond                   Population      Length (A)
======================================================================
             Ti 1  -- Ti 34                  0.11        2.79227
             Ti 1  -- Ti 28                  0.11        2.79501
             Ti 1  -- Ti 36                  0.11        2.79773
             Ti 19 -- Ti 43                  0.11        2.80183
             Ti 10 -- Ti 34                  0.11        2.80183
             Ti 19 -- Ti 52                  0.11        2.80183
             Ti 10 -- Ti 43                  0.11        2.80183
             Ti 25 -- Ti 40                  0.11        2.80183
             Ti 16 -- Ti 31                  0.11        2.80183
             Ti 7  -- Ti 31                  0.11        2.80183
             Ti 25 -- Ti 49                  0.11        2.80183
             Ti 16 -- Ti 40                  0.11        2.80183
             Ti 7  -- Ti 49                  0.11        2.80183
             Ti 24 -- Ti 39                  0.11        2.80183
             Ti 20 -- Ti 44                  0.11        2.80183
             Ti 23 -- Ti 38                  0.11        2.80183
             Ti 22 -- Ti 37                  0.11        2.80183
             Ti 21 -- Ti 45                  0.11        2.80183
             Ti 15 -- Ti 30                  0.11        2.80183
             Ti 11 -- Ti 35                  0.11        2.80183
             Ti 6  -- Ti 30                  0.11        2.80183
             Ti 2  -- Ti 35                  0.11        2.80183
             Ti 14 -- Ti 29                  0.11        2.80183
             Ti 13 -- Ti 28                  0.11        2.80183
             Ti 12 -- Ti 36                  0.11        2.80183
             Ti 5  -- Ti 29                  0.11        2.80183
             Ti 4  -- Ti 28                  0.11        2.80183
             Ti 3  -- Ti 36                  0.11        2.80183
             Ti 24 -- Ti 48                  0.11        2.80183
             Ti 20 -- Ti 53                  0.11        2.80183
             Ti 15 -- Ti 39                  0.11        2.80183
             Ti 11 -- Ti 44                  0.11        2.80183
             Ti 6  -- Ti 48                  0.11        2.80183
             Ti 2  -- Ti 53                  0.11        2.80183
             Ti 23 -- Ti 47                  0.11        2.80183
             Ti 22 -- Ti 46                  0.11        2.80183
             Ti 21 -- Ti 54                  0.11        2.80183
             Ti 14 -- Ti 38                  0.11        2.80183
             Ti 13 -- Ti 37                  0.11        2.80183
             Ti 12 -- Ti 45                  0.11        2.80183
             Ti 5  -- Ti 47                  0.11        2.80183
             Ti 4  -- Ti 46                  0.11        2.80183
             Ti 3  -- Ti 54                  0.11        2.80183
             Ti 27 -- Ti 42                  0.11        2.80183
             Ti 26 -- Ti 41                  0.11        2.80183
             Ti 18 -- Ti 33                  0.11        2.80183
             Ti 17 -- Ti 32                  0.11        2.80183
             Ti 9  -- Ti 33                  0.11        2.80183
             Ti 8  -- Ti 32                  0.11        2.80183
             Ti 27 -- Ti 51                  0.11        2.80183
             Ti 26 -- Ti 50                  0.11        2.80183
             Ti 18 -- Ti 42                  0.11        2.80183
             Ti 17 -- Ti 41                  0.11        2.80183
             Ti 9  -- Ti 51                  0.11        2.80183
             Ti 8  -- Ti 50                  0.11        2.80183
             Ti 23 -- Ti 37                  0.11        2.80183
             Ti 21 -- Ti 44                  0.11        2.80183
             Ti 24 -- Ti 38                  0.11        2.80183
             Ti 12 -- Ti 35                  0.11        2.80183
             Ti 3  -- Ti 35                  0.11        2.80183
             Ti 14 -- Ti 28                  0.11        2.80183
             Ti 5  -- Ti 28                  0.11        2.80183
             Ti 15 -- Ti 29                  0.11        2.80183
             Ti 6  -- Ti 29                  0.11        2.80183
             Ti 23 -- Ti 46                  0.11        2.80183
             Ti 21 -- Ti 53                  0.11        2.80183
             Ti 14 -- Ti 37                  0.11        2.80183
             Ti 12 -- Ti 44                  0.11        2.80183
             Ti 5  -- Ti 46                  0.11        2.80183
             Ti 3  -- Ti 53                  0.11        2.80183
             Ti 24 -- Ti 47                  0.11        2.80183
             Ti 15 -- Ti 38                  0.11        2.80183
             Ti 6  -- Ti 47                  0.11        2.80183
             Ti 27 -- Ti 41                  0.11        2.80183
             Ti 18 -- Ti 32                  0.11        2.80183
             Ti 9  -- Ti 32                  0.11        2.80183
             Ti 27 -- Ti 50                  0.11        2.80183
             Ti 18 -- Ti 41                  0.11        2.80183
             Ti 9  -- Ti 50                  0.11        2.80183
             Ti 22 -- Ti 39                  0.11        2.80183
             Ti 20 -- Ti 43                  0.11        2.80183
             Ti 19 -- Ti 45                  0.11        2.80183
             Ti 11 -- Ti 34                  0.11        2.80183
             Ti 10 -- Ti 36                  0.11        2.80183
             Ti 2  -- Ti 34                  0.11        2.80183
             Ti 13 -- Ti 30                  0.11        2.80183
             Ti 4  -- Ti 30                  0.11        2.80183
             Ti 20 -- Ti 52                  0.11        2.80183
             Ti 19 -- Ti 54                  0.11        2.80183
             Ti 11 -- Ti 43                  0.11        2.80183
             Ti 10 -- Ti 45                  0.11        2.80183
             Ti 2  -- Ti 52                  0.11        2.80183
             Ti 22 -- Ti 48                  0.11        2.80183
             Ti 13 -- Ti 39                  0.11        2.80183
             Ti 4  -- Ti 48                  0.11        2.80183
             Ti 24 -- Ti 42                  0.11        2.80183
             Ti 23 -- Ti 41                  0.11        2.80183
             Ti 27 -- Ti 45                  0.11        2.80183
             Ti 26 -- Ti 44                  0.11        2.80183
             Ti 21 -- Ti 39                  0.11        2.80183
             Ti 20 -- Ti 38                  0.11        2.80183
             Ti 19 -- Ti 37                  0.11        2.80183
             Ti 15 -- Ti 33                  0.11        2.80183
             Ti 14 -- Ti 32                  0.11        2.80183
             Ti 6  -- Ti 33                  0.11        2.80183
             Ti 5  -- Ti 32                  0.11        2.80183
             Ti 18 -- Ti 36                  0.11        2.80183
             Ti 17 -- Ti 35                  0.11        2.80183
             Ti 12 -- Ti 30                  0.11        2.80183
             Ti 11 -- Ti 29                  0.11        2.80183
             Ti 10 -- Ti 28                  0.11        2.80183
             Ti 9  -- Ti 36                  0.11        2.80183
             Ti 8  -- Ti 35                  0.11        2.80183
             Ti 3  -- Ti 30                  0.11        2.80183
             Ti 2  -- Ti 29                  0.11        2.80183
             Ti 24 -- Ti 51                  0.11        2.80183
             Ti 23 -- Ti 50                  0.11        2.80183
             Ti 15 -- Ti 42                  0.11        2.80183
             Ti 14 -- Ti 41                  0.11        2.80183
             Ti 6  -- Ti 51                  0.11        2.80183
             Ti 5  -- Ti 50                  0.11        2.80183
             Ti 21 -- Ti 48                  0.11        2.80183
             Ti 20 -- Ti 47                  0.11        2.80183
             Ti 19 -- Ti 46                  0.11        2.80183
             Ti 12 -- Ti 39                  0.11        2.80183
             Ti 11 -- Ti 38                  0.11        2.80183
             Ti 10 -- Ti 37                  0.11        2.80183
             Ti 3  -- Ti 48                  0.11        2.80183
             Ti 2  -- Ti 47                  0.11        2.80183
             Ti 27 -- Ti 54                  0.11        2.80183
             Ti 26 -- Ti 53                  0.11        2.80183
             Ti 18 -- Ti 45                  0.11        2.80183
             Ti 17 -- Ti 44                  0.11        2.80183
             Ti 9  -- Ti 54                  0.11        2.80183
             Ti 8  -- Ti 53                  0.11        2.80183
             Ti 22 -- Ti 40                  0.11        2.80183
             Ti 25 -- Ti 43                  0.11        2.80183
             Ti 13 -- Ti 31                  0.11        2.80183
             Ti 4  -- Ti 31                  0.11        2.80183
             Ti 16 -- Ti 34                  0.11        2.80183
             Ti 7  -- Ti 34                  0.11        2.80183
             Ti 22 -- Ti 49                  0.11        2.80183
             Ti 13 -- Ti 40                  0.11        2.80183
             Ti 4  -- Ti 49                  0.11        2.80183
             Ti 25 -- Ti 52                  0.11        2.80183
             Ti 16 -- Ti 43                  0.11        2.80183
             Ti 7  -- Ti 52                  0.11        2.80183
             Ti 26 -- Ti 40                  0.11        2.80183
             Ti 25 -- Ti 42                  0.11        2.80183
             Ti 17 -- Ti 31                  0.11        2.80183
             Ti 16 -- Ti 33                  0.11        2.80183
             Ti 8  -- Ti 31                  0.11        2.80183
             Ti 7  -- Ti 33                  0.11        2.80183
             Ti 26 -- Ti 49                  0.11        2.80183
             Ti 25 -- Ti 51                  0.11        2.80183
             Ti 17 -- Ti 40                  0.11        2.80183
             Ti 16 -- Ti 42                  0.11        2.80183
             Ti 8  -- Ti 49                  0.11        2.80183
             Ti 7  -- Ti 51                  0.11        2.80183
             Ti 1  -- Ti 52                  0.11        2.80595
             Ti 1  -- Ti 46                  0.11        2.80867
             Ti 1  -- Ti 54                  0.11        2.81139
             Ti 1  -- Ti 2                   0.23        2.85346
             Ti 1  -- Ti 7                   0.23        2.85613
             Ti 1  -- Ti 5                   0.23        2.85613
             Ti 46 -- Ti 52                  0.23        2.85879
             Ti 37 -- Ti 43                  0.23        2.85879
             Ti 28 -- Ti 34                  0.23        2.85879
             Ti 21 -- Ti 26                  0.23        2.85879
             Ti 20 -- Ti 25                  0.23        2.85879
             Ti 12 -- Ti 17                  0.23        2.85879
             Ti 11 -- Ti 16                  0.23        2.85879
             Ti 3  -- Ti 8                   0.23        2.85879
             Ti 2  -- Ti 7                   0.23        2.85879
             Ti 48 -- Ti 53                  0.23        2.85879
             Ti 48 -- Ti 51                  0.23        2.85879
             Ti 47 -- Ti 51                  0.23        2.85879
             Ti 47 -- Ti 50                  0.23        2.85879
             Ti 39 -- Ti 44                  0.23        2.85879
             Ti 39 -- Ti 42                  0.23        2.85879
             Ti 38 -- Ti 42                  0.23        2.85879
             Ti 38 -- Ti 41                  0.23        2.85879
             Ti 30 -- Ti 35                  0.23        2.85879
             Ti 30 -- Ti 33                  0.23        2.85879
             Ti 29 -- Ti 33                  0.23        2.85879
             Ti 29 -- Ti 32                  0.23        2.85879
             Ti 48 -- Ti 54                  0.23        2.85879
             Ti 48 -- Ti 49                  0.23        2.85879
             Ti 47 -- Ti 53                  0.23        2.85879
             Ti 46 -- Ti 50                  0.23        2.85879
             Ti 39 -- Ti 45                  0.23        2.85879
             Ti 39 -- Ti 40                  0.23        2.85879
             Ti 38 -- Ti 44                  0.23        2.85879
             Ti 37 -- Ti 41                  0.23        2.85879
             Ti 30 -- Ti 36                  0.23        2.85879
             Ti 30 -- Ti 31                  0.23        2.85879
             Ti 29 -- Ti 35                  0.23        2.85879
             Ti 28 -- Ti 32                  0.23        2.85879
             Ti 21 -- Ti 27                  0.23        2.85879
             Ti 21 -- Ti 24                  0.23        2.85879
             Ti 20 -- Ti 26                  0.23        2.85879
             Ti 19 -- Ti 25                  0.23        2.85879
             Ti 12 -- Ti 18                  0.23        2.85879
             Ti 12 -- Ti 15                  0.23        2.85879
             Ti 11 -- Ti 17                  0.23        2.85879
             Ti 10 -- Ti 16                  0.23        2.85879
             Ti 3  -- Ti 9                   0.23        2.85879
             Ti 3  -- Ti 6                   0.23        2.85879
             Ti 2  -- Ti 8                   0.23        2.85879
             Ti 20 -- Ti 23                  0.23        2.85879
             Ti 19 -- Ti 23                  0.23        2.85879
             Ti 19 -- Ti 22                  0.23        2.85879
             Ti 11 -- Ti 14                  0.23        2.85879
             Ti 10 -- Ti 14                  0.23        2.85879
             Ti 10 -- Ti 13                  0.23        2.85879
             Ti 2  -- Ti 5                   0.23        2.85879
             Ti 20 -- Ti 24                  0.23        2.85879
             Ti 11 -- Ti 15                  0.23        2.85879
             Ti 2  -- Ti 6                   0.23        2.85879
             Ti 52 -- Ti 54                  0.23        2.85879
             Ti 50 -- Ti 51                  0.23        2.85879
             Ti 43 -- Ti 45                  0.23        2.85879
             Ti 41 -- Ti 42                  0.23        2.85879
             Ti 34 -- Ti 36                  0.23        2.85879
             Ti 32 -- Ti 33                  0.23        2.85879
             Ti 22 -- Ti 23                  0.23        2.85879
             Ti 13 -- Ti 14                  0.23        2.85879
             Ti 4  -- Ti 5                   0.23        2.85879
             Ti 47 -- Ti 48                  0.23        2.85879
             Ti 46 -- Ti 47                  0.23        2.85879
             Ti 38 -- Ti 39                  0.23        2.85879
             Ti 37 -- Ti 38                  0.23        2.85879
             Ti 29 -- Ti 30                  0.23        2.85879
             Ti 28 -- Ti 29                  0.23        2.85879
             Ti 26 -- Ti 27                  0.23        2.85879
             Ti 25 -- Ti 26                  0.23        2.85879
             Ti 20 -- Ti 21                  0.23        2.85879
             Ti 19 -- Ti 20                  0.23        2.85879
             Ti 17 -- Ti 18                  0.23        2.85879
             Ti 16 -- Ti 17                  0.23        2.85879
             Ti 11 -- Ti 12                  0.23        2.85879
             Ti 10 -- Ti 11                  0.23        2.85879
             Ti 8  -- Ti 9                   0.23        2.85879
             Ti 7  -- Ti 8                   0.23        2.85879
             Ti 2  -- Ti 3                   0.23        2.85879
             Ti 53 -- Ti 54                  0.23        2.85879
             Ti 49 -- Ti 51                  0.23        2.85879
             Ti 44 -- Ti 45                  0.23        2.85879
             Ti 40 -- Ti 42                  0.23        2.85879
             Ti 35 -- Ti 36                  0.23        2.85879
             Ti 31 -- Ti 33                  0.23        2.85879
             Ti 23 -- Ti 24                  0.23        2.85879
             Ti 14 -- Ti 15                  0.23        2.85879
             Ti 5  -- Ti 6                   0.23        2.85879
             Ti 47 -- Ti 52                  0.23        2.85879
             Ti 46 -- Ti 54                  0.23        2.85879
             Ti 46 -- Ti 49                  0.23        2.85879
             Ti 38 -- Ti 43                  0.23        2.85879
             Ti 37 -- Ti 45                  0.23        2.85879
             Ti 37 -- Ti 40                  0.23        2.85879
             Ti 29 -- Ti 34                  0.23        2.85879
             Ti 28 -- Ti 36                  0.23        2.85879
             Ti 28 -- Ti 31                  0.23        2.85879
             Ti 19 -- Ti 27                  0.23        2.85879
             Ti 10 -- Ti 18                  0.23        2.85879
             Ti 21 -- Ti 22                  0.23        2.85879
             Ti 12 -- Ti 13                  0.23        2.85879
             Ti 3  -- Ti 4                   0.23        2.85879
             Ti 23 -- Ti 26                  0.23        2.85879
             Ti 22 -- Ti 25                  0.23        2.85879
             Ti 14 -- Ti 17                  0.23        2.85879
             Ti 13 -- Ti 16                  0.23        2.85879
             Ti 5  -- Ti 8                   0.23        2.85879
             Ti 4  -- Ti 7                   0.23        2.85879
             Ti 24 -- Ti 27                  0.23        2.85879
             Ti 15 -- Ti 18                  0.23        2.85879
             Ti 6  -- Ti 9                   0.23        2.85879
             Ti 51 -- Ti 54                  0.23        2.85879
             Ti 42 -- Ti 45                  0.23        2.85879
             Ti 33 -- Ti 36                  0.23        2.85879
             Ti 23 -- Ti 27                  0.23        2.85879
             Ti 22 -- Ti 26                  0.23        2.85879
             Ti 14 -- Ti 18                  0.23        2.85879
             Ti 13 -- Ti 17                  0.23        2.85879
             Ti 5  -- Ti 9                   0.23        2.85879
             Ti 4  -- Ti 8                   0.23        2.85879
             Ti 50 -- Ti 54                  0.23        2.85879
             Ti 50 -- Ti 53                  0.23        2.85879
             Ti 49 -- Ti 52                  0.23        2.85879
             Ti 41 -- Ti 45                  0.23        2.85879
             Ti 41 -- Ti 44                  0.23        2.85879
             Ti 40 -- Ti 43                  0.23        2.85879
             Ti 32 -- Ti 36                  0.23        2.85879
             Ti 32 -- Ti 35                  0.23        2.85879
             Ti 31 -- Ti 34                  0.23        2.85879
             Ti 51 -- Ti 52                  0.23        2.85879
             Ti 42 -- Ti 43                  0.23        2.85879
             Ti 33 -- Ti 34                  0.23        2.85879
             Ti 22 -- Ti 24                  0.23        2.85879
             Ti 13 -- Ti 15                  0.23        2.85879
             Ti 4  -- Ti 6                   0.23        2.85879
             Ti 52 -- Ti 53                  0.23        2.85879
             Ti 43 -- Ti 44                  0.23        2.85879
             Ti 34 -- Ti 35                  0.23        2.85879
             Ti 49 -- Ti 50                  0.23        2.85879
             Ti 46 -- Ti 48                  0.23        2.85879
             Ti 40 -- Ti 41                  0.23        2.85879
             Ti 37 -- Ti 39                  0.23        2.85879
             Ti 31 -- Ti 32                  0.23        2.85879
             Ti 28 -- Ti 30                  0.23        2.85879
             Ti 25 -- Ti 27                  0.23        2.85879
             Ti 19 -- Ti 21                  0.23        2.85879
             Ti 16 -- Ti 18                  0.23        2.85879
             Ti 10 -- Ti 12                  0.23        2.85879
             Ti 7  -- Ti 9                   0.23        2.85879
             Ti 24 -- Ti 25                  0.23        2.85879
             Ti 15 -- Ti 16                  0.23        2.85879
             Ti 6  -- Ti 7                   0.23        2.85879
             Ti 49 -- Ti 53                  0.23        2.85879
             Ti 40 -- Ti 44                  0.23        2.85879
             Ti 31 -- Ti 35                  0.23        2.85879
             Ti 1  -- Ti 4                   0.23        2.86147
             Ti 1  -- Ti 9                   0.23        2.86147
             Ti 1  -- Ti 3                   0.23        2.86414
======================================================================

 
 A BibTeX formatted list of references used in this run has been written to 
 castep.bib
 
Initialisation time =     10.84 s
Calculation time    =   2086.18 s
Finalisation time   =      0.10 s
Total time          =   2097.12 s
Peak Memory Use     = 1632488 kB
  
Overall parallel efficiency rating: Very good (84%)                             
  
Data was distributed by:-
G-vector (3-way); efficiency rating: Very good (85%)                            
k-point (16-way); efficiency rating: Excellent (98%)                            
