 +-------------------------------------------------+
 |                                                 |
 |      CCC   AA    SSS  TTTTT  EEEEE  PPPP        |
 |     C     A  A  S       T    E      P   P       |
 |     C     AAAA   SS     T    EEE    PPPP        |
 |     C     A  A     S    T    E      P           |
 |      CCC  A  A  SSS     T    EEEEE  P           |
 |                                                 |
 +-------------------------------------------------+
 |                                                 |
 | Welcome to Academic Release CASTEP version 17.21|          
 | Ab Initio Total Energy Program                  |
 |                                                 |
 | Authors:                                        |
 | M. Segall, M. Probert, C. Pickard, P. Hasnip,   |
 | S. Clark, K. Refson, J. R. Yates, M. Payne      |
 |                                                 |
 | Contributors:                                   |
 | P. Lindan, P. Haynes, J. White, V. Milman,      |
 | N. Govind, M. Gibson, P. Tulip, V. Cocula,      |
 | B. Montanari, D. Quigley, M. Glover,            |
 | L. Bernasconi, A. Perlov, M. Plummer,           |
 | E. McNellis, J. Meyer, J. Gale, D. Jochym       |
 | J. Aarons, B. Walker, R. Gillen, D. Jones       |
 | T. Green, I. J. Bush, C. J. Armstrong,          |
 | E. J. Higgins, E. L. Brown, M. S. McFly,        |
 | J. Wilkins, B-C. Shih, P. J. P. Byrne           |
 |                                                 |
 | Copyright (c) 2000 - 2017                       |
 |                                                 |
 |     Distributed under the terms of an           |
 |     Agreement between the United Kingdom        |
 |     Car-Parrinello (UKCP) Consortium,           |
 |     Daresbury Laboratory and Accelrys, Inc.     |
 |                                                 |
 | Please cite                                     |
 |                                                 |
 |     "First principles methods using CASTEP"     |
 |                                                 |
 |         Zeitschrift fuer Kristallographie       |
 |           220(5-6) pp. 567-570 (2005)           |
 |                                                 |
 | S. J. Clark, M. D. Segall, C. J. Pickard,       |
 | P. J. Hasnip, M. J. Probert, K. Refson,         |
 | M. C. Payne                                     |
 |                                                 |
 |       in all publications arising from          |
 |              your use of CASTEP                 |
 |                                                 |
 +-------------------------------------------------+


 Compiled for linux_x86_64_gfortran6.0-XT on Fri, 21 Jul 2017 10:20:05 +0100
 from code version 056e886bd5a1+ Castep172_branch Mon, 15 May 2017 14:45:35 +0100
 Compiler: GNU Fortran 6.3.0; Optimisation: fast
 MATHLIBS: Intel MKL(2017.0.0) (LAPACK version 3.6.0)
 FFT Lib : fftw3 version commercial-fftw-3.3.4-sse2-avx
 Fundamental constants values: CODATA 2010

 Run started: Wed, 11 Dec 2019 23:25:18 +0000

 Atomic calculation performed for Ti: 1s2 2s2 2p6 3s2 3p6 3d2 4s2

 Converged in 78 iterations to an ae energy of -23176.516 eV

   ============================================================                
   | Pseudopotential Report - Date of generation 11-12-2019   |                
   ------------------------------------------------------------                
   | Element: Ti Ionic charge: 12.00 Level of theory: LDA     |                
   | Atomic Solver: Koelling-Harmon                           |                
   |                                                          |                
   |               Reference Electronic Structure             |                
   |         Orbital         Occupation         Energy        |                
   |            3s              2.000           -2.288        |                
   |            3p              6.000           -1.425        |                
   |            4s              2.000           -0.169        |                
   |            3d              2.000           -0.164        |                
   |                                                          |                
   |                 Pseudopotential Definition               |                
   |        Beta     l      e      Rc     scheme   norm       |                
   |          1      0   -2.288   1.793     qc      0         |                
   |          2      0   -0.169   1.793     qc      0         |                
   |          3      0    0.250   1.793     qc      0         |                
   |          4      1   -1.425   1.793     qc      0         |                
   |          5      1    0.250   1.793     qc      0         |                
   |          6      2   -0.164   1.793     qc      0         |                
   |          7      2    0.250   1.793     qc      0         |                
   |         loc     3    0.000   1.793     pn      0         |                
   |                                                          |                
   | Augmentation charge Rinner = 1.263                       |                
   | Partial core correction Rc = 1.263                       |                
   ------------------------------------------------------------                
   | "3|1.8|9|10|11|30U:40:31:32(qc=5.5)"                     |                
   ------------------------------------------------------------                
   |      Author: Chris J. Pickard, Cambridge University      |                
   ============================================================                

 Pseudo atomic calculation performed for Ti 3s2 3p6 3d2 4s2

 Converged in 31 iterations to a total energy of -1585.9719 eV

 Calculation parallelised over 48 processes.
 Data is distributed by G-vector(3-way) and k-point(16-way)

 ************************************ Title ************************************
 

 ***************************** General Parameters ******************************
  
 output verbosity                               : normal  (1)
 write checkpoint data to                       : castep.check
 type of calculation                            : single point energy
 stress calculation                             : on
 density difference calculation                 : off
 electron localisation func (ELF) calculation   : off
 Hirshfeld analysis                             : off
 unlimited duration calculation
 timing information                             : on
 memory usage estimate                          : on
 write final potential to formatted file        : off
 write final density to formatted file          : off
 write BibTeX reference list                    : on
 write OTFG pseudopotential files               : on
 write electrostatic potential file             : on
 write bands file                               : on
 checkpoint writing                             : off
  
 output         length unit                     : A
 output           mass unit                     : amu
 output           time unit                     : ps
 output         charge unit                     : e
 output           spin unit                     : hbar/2
 output         energy unit                     : eV
 output          force unit                     : eV/A
 output       velocity unit                     : A/ps
 output       pressure unit                     : GPa
 output     inv_length unit                     : 1/A
 output      frequency unit                     : cm-1
 output force constant unit                     : eV/A**2
 output         volume unit                     : A**3
 output   IR intensity unit                     : (D/A)**2/amu
 output         dipole unit                     : D
 output         efield unit                     : eV/A/e
 output        entropy unit                     : J/mol/K
  
 wavefunctions paging                           : none
 random number generator seed                   : randomised (232520219)
 data distribution                              : optimal for this architecture
 optimization strategy                          : balance speed and memory

 *********************** Exchange-Correlation Parameters ***********************
  
 using functional                               : Local Density Approximation
 relativistic treatment                         : Koelling-Harmon
 DFT+D: Semi-empirical dispersion correction    : off

 ************************* Pseudopotential Parameters **************************
  
 pseudopotential representation                 : reciprocal space
 <beta|phi> representation                      : reciprocal space
 spin-orbit coupling                            : off

 **************************** Basis Set Parameters *****************************
  
 plane wave basis set cut-off                   :   500.0000   eV
 size of standard grid                          :     1.7500
 size of   fine   gmax                          :    20.0476   1/A
 finite basis set correction                    : automatic
 number of sample energies                      :          3
           sample  spacing                      :     5.0000   eV

 **************************** Electronic Parameters ****************************
  
 number of  electrons                           :  648.0    
 net charge of system                           :  0.000    
 treating system as non-spin-polarized
 number of bands                                :        389

 ********************* Electronic Minimization Parameters **********************
  
 Method: Treating system as metallic with density mixing treatment of electrons,
         and number of  SD  steps               :          1
         and number of  CG  steps               :          4
  
 total energy / atom convergence tol.           : 0.1000E-04   eV
 eigen-energy convergence tolerance             : 0.1000E-05   eV
 max force / atom convergence tol.              : ignored
 convergence tolerance window                   :          3   cycles
 max. number of SCF cycles                      :        250
 number of fixed-spin iterations                :         10
 smearing scheme                                : Gaussian
 smearing width                                 : 0.1000       eV
 Fermi energy convergence tolerance             : 0.2721E-13   eV
 periodic dipole correction                     : NONE

 ************************** Density Mixing Parameters **************************
  
 density-mixing scheme                          : Pulay
 max. length of mixing history                  :         20
 charge density mixing amplitude                : 0.8000    
 cut-off energy for mixing                      :  500.0       eV

 *********************** Population Analysis Parameters ************************
  
 Population analysis with cutoff                :  3.000       A

 *******************************************************************************
  

                           -------------------------------
                                      Unit Cell
                           -------------------------------
        Real Lattice(A)                      Reciprocal Lattice(1/A)
   8.5763590   0.0000000   0.0000000        0.7326169   0.4229765   0.0000000
  -4.2881790   7.4273440   0.0000000        0.0000000   0.8459532   0.0000000
   0.0000000   0.0000000  13.5844380        0.0000000   0.0000000   0.4625282

                       Lattice parameters(A)       Cell Angles
                    a =    8.576359          alpha =   90.000000
                    b =    8.576358          beta  =   90.000000
                    c =   13.584438          gamma =  120.000000

                       Current cell volume =  865.322840       A**3
                                   density =    2.987114   AMU/A**3
                                           =    4.960219     g/cm^3

                           -------------------------------
                                     Cell Contents
                           -------------------------------
                         Total number of ions in cell =   54
                      Total number of species in cell =    1
                        Max number of any one species =   54

            xxxxxxxxxxxxxxxxxxxxxxxxxxxxxxxxxxxxxxxxxxxxxxxxxxxxxxxxxxxx
            x  Element    Atom        Fractional coordinates of atoms  x
            x            Number           u          v          w      x
            x----------------------------------------------------------x
            x  Ti           1         0.000622   0.000000   0.000622   x 
            x  Ti           2         0.333333   0.000000   0.000000   x 
            x  Ti           3         0.666667   0.000000   0.000000   x 
            x  Ti           4        -0.000000   0.333333   0.000000   x 
            x  Ti           5         0.333333   0.333333   0.000000   x 
            x  Ti           6         0.666667   0.333333   0.000000   x 
            x  Ti           7         0.000000   0.666667   0.000000   x 
            x  Ti           8         0.333333   0.666667   0.000000   x 
            x  Ti           9         0.666667   0.666667   0.000000   x 
            x  Ti          10         0.000000   0.000000   0.333333   x 
            x  Ti          11         0.333333   0.000000   0.333333   x 
            x  Ti          12         0.666667   0.000000   0.333333   x 
            x  Ti          13        -0.000000   0.333333   0.333333   x 
            x  Ti          14         0.333333   0.333333   0.333333   x 
            x  Ti          15         0.666667   0.333333   0.333333   x 
            x  Ti          16         0.000000   0.666667   0.333333   x 
            x  Ti          17         0.333333   0.666667   0.333333   x 
            x  Ti          18         0.666667   0.666667   0.333333   x 
            x  Ti          19         0.000000   0.000000   0.666667   x 
            x  Ti          20         0.333333   0.000000   0.666667   x 
            x  Ti          21         0.666667   0.000000   0.666667   x 
            x  Ti          22        -0.000000   0.333333   0.666667   x 
            x  Ti          23         0.333333   0.333333   0.666667   x 
            x  Ti          24         0.666667   0.333333   0.666667   x 
            x  Ti          25         0.000000   0.666667   0.666667   x 
            x  Ti          26         0.333333   0.666667   0.666667   x 
            x  Ti          27         0.666667   0.666667   0.666667   x 
            x  Ti          28         0.111111   0.222222   0.166667   x 
            x  Ti          29         0.444444   0.222222   0.166667   x 
            x  Ti          30         0.777778   0.222222   0.166667   x 
            x  Ti          31         0.111111   0.555556   0.166667   x 
            x  Ti          32         0.444444   0.555556   0.166667   x 
            x  Ti          33         0.777778   0.555556   0.166667   x 
            x  Ti          34         0.111111   0.888889   0.166667   x 
            x  Ti          35         0.444444   0.888889   0.166667   x 
            x  Ti          36         0.777778   0.888889   0.166667   x 
            x  Ti          37         0.111111   0.222222   0.500000   x 
            x  Ti          38         0.444444   0.222222   0.500000   x 
            x  Ti          39         0.777778   0.222222   0.500000   x 
            x  Ti          40         0.111111   0.555556   0.500000   x 
            x  Ti          41         0.444444   0.555556   0.500000   x 
            x  Ti          42         0.777778   0.555556   0.500000   x 
            x  Ti          43         0.111111   0.888889   0.500000   x 
            x  Ti          44         0.444444   0.888889   0.500000   x 
            x  Ti          45         0.777778   0.888889   0.500000   x 
            x  Ti          46         0.111111   0.222222   0.833333   x 
            x  Ti          47         0.444444   0.222222   0.833333   x 
            x  Ti          48         0.777778   0.222222   0.833333   x 
            x  Ti          49         0.111111   0.555556   0.833333   x 
            x  Ti          50         0.444444   0.555556   0.833333   x 
            x  Ti          51         0.777778   0.555556   0.833333   x 
            x  Ti          52         0.111111   0.888889   0.833333   x 
            x  Ti          53         0.444444   0.888889   0.833333   x 
            x  Ti          54         0.777778   0.888889   0.833333   x 
            xxxxxxxxxxxxxxxxxxxxxxxxxxxxxxxxxxxxxxxxxxxxxxxxxxxxxxxxxxxx


                         No user defined ionic velocities

                           -------------------------------
                                   Details of Species
                           -------------------------------

                               Mass of species in AMU
                                    Ti   47.8670000

                          Electric Quadrupole Moment (Barn)
                                    Ti    0.3020000 Isotope 47

                          Files used for pseudopotentials:
                                    Ti 3|1.8|9|10|11|30U:40:31:32(qc=5.5)

                           -------------------------------
                              k-Points For BZ Sampling
                           -------------------------------
                       MP grid size for SCF calculation is  4  4  2
                            with an offset of   0.000  0.000  0.000
                       Number of kpoints used =            16

                           -------------------------------
                               Symmetry and Constraints
                           -------------------------------

                      Maximum deviation from symmetry =  0.00000         ANG

                      Number of symmetry operations   =           1
                      Number of ionic constraints     =           3
                      Point group of crystal =     1: C1, 1, 1
                      Space group of crystal =     1: P1, P 1

             Set iprint > 1 for details on symmetry rotations/translations

                         Centre of mass is constrained
             Set iprint > 1 for details of linear ionic constraints

                         Number of cell constraints= 0
                         Cell constraints are:  1 2 3 4 5 6

                         External pressure/stress (GPa)
                          0.00000   0.00000   0.00000
                                    0.00000   0.00000
                                              0.00000
  
+---------------- MEMORY AND SCRATCH DISK ESTIMATES PER PROCESS --------------+
|                                                     Memory          Disk    |
| Baseline code, static data and system overhead      172.0 MB         0.0 MB |
| BLAS internal memory storage                          0.0 MB         0.0 MB |
| Model and support data                              214.2 MB       158.5 MB |
| Electronic energy minimisation requirements         229.2 MB         0.0 MB |
| Force calculation requirements                       16.0 MB         0.0 MB |
| Stress calculation requirements                      17.7 MB         0.0 MB |
|                                               ----------------------------- |
| Approx. total storage required per process          615.4 MB       158.5 MB |
|                                                                             |
| Requirements will fluctuate during execution and may exceed these estimates |
+-----------------------------------------------------------------------------+
Calculating finite basis set correction with  3 cut-off energies.
Calculating total energy with cut-off of  490.000 eV.
------------------------------------------------------------------------ <-- SCF
SCF loop      Energy           Fermi           Energy gain       Timer   <-- SCF
                               energy          per atom          (sec)   <-- SCF
------------------------------------------------------------------------ <-- SCF
Initial  -7.81816597E+004  0.00000000E+000                        18.83  <-- SCF
      1  -8.39584733E+004  1.16494047E+001   1.06978030E+002      93.20  <-- SCF
      2  -8.59450477E+004  1.02109241E+001   3.67884159E+001     147.08  <-- SCF
      3  -8.60603510E+004  9.97113177E+000   2.13524548E+000     208.60  <-- SCF
      4  -8.60591294E+004  9.21877366E+000  -2.26209768E-002     270.52  <-- SCF
      5  -8.60573191E+004  9.47154367E+000  -3.35254872E-002     345.11  <-- SCF
      6  -8.60579253E+004  9.45093901E+000   1.12256677E-002     414.71  <-- SCF
      7  -8.60574436E+004  9.45013842E+000  -8.91938480E-003     479.73  <-- SCF
      8  -8.60574518E+004  9.45149619E+000   1.50906559E-004     538.63  <-- SCF
      9  -8.60574490E+004  9.45449170E+000  -5.15835847E-005     595.48  <-- SCF
     10  -8.60574489E+004  9.45488807E+000  -1.72372239E-006     647.81  <-- SCF
     11  -8.60574486E+004  9.45487355E+000  -4.81747104E-006     692.76  <-- SCF
------------------------------------------------------------------------ <-- SCF
 
Final energy, E             =  -86057.18527848     eV
Final free energy (E-TS)    =  -86057.44862299     eV
(energies not corrected for finite basis set)
 
NB est. 0K energy (E-0.5TS)      =  -86057.31695074     eV
 
Calculating total energy with cut-off of  495.000 eV.
------------------------------------------------------------------------ <-- SCF
SCF loop      Energy           Fermi           Energy gain       Timer   <-- SCF
                               energy          per atom          (sec)   <-- SCF
------------------------------------------------------------------------ <-- SCF
Initial  -8.60571850E+004  0.00000000E+000                       705.91  <-- SCF
      1  -8.60574573E+004  9.45465464E+000   5.04323543E-003     774.16  <-- SCF
      2  -8.60574574E+004  9.45465328E+000   1.56882359E-006     821.09  <-- SCF
      3  -8.60576082E+004  9.45193371E+000   2.79238758E-003     886.76  <-- SCF
      4  -8.60574485E+004  9.45508184E+000  -2.95587482E-003     952.34  <-- SCF
      5  -8.60574504E+004  9.45496728E+000   3.51830318E-005    1011.91  <-- SCF
      6  -8.60574503E+004  9.45479764E+000  -3.32773530E-006    1058.71  <-- SCF
      7  -8.60574503E+004  9.45480107E+000  -1.17399159E-007    1102.70  <-- SCF
------------------------------------------------------------------------ <-- SCF
 
Final energy, E             =  -86057.18691455     eV
Final free energy (E-TS)    =  -86057.45026241     eV
(energies not corrected for finite basis set)
 
NB est. 0K energy (E-0.5TS)      =  -86057.31858848     eV
 
Calculating total energy with cut-off of  500.000 eV.
------------------------------------------------------------------------ <-- SCF
SCF loop      Energy           Fermi           Energy gain       Timer   <-- SCF
                               energy          per atom          (sec)   <-- SCF
------------------------------------------------------------------------ <-- SCF
Initial  -8.60571866E+004  0.00000000E+000                      1115.84  <-- SCF
      1  -8.60574615E+004  9.45460152E+000   5.09074747E-003    1184.93  <-- SCF
      2  -8.60574616E+004  9.45459999E+000   1.65781547E-006    1232.41  <-- SCF
      3  -8.60576669E+004  9.45032089E+000   3.80171476E-003    1299.61  <-- SCF
      4  -8.60574502E+004  9.45510697E+000  -4.01167869E-003    1366.76  <-- SCF
      5  -8.60574525E+004  9.45497215E+000   4.15458510E-005    1427.14  <-- SCF
      6  -8.60574521E+004  9.45479061E+000  -6.74102242E-006    1475.04  <-- SCF
      7  -8.60574521E+004  9.45479537E+000  -1.63764764E-007    1519.46  <-- SCF
------------------------------------------------------------------------ <-- SCF
 
Final energy, E             =  -86057.18875125     eV
Final free energy (E-TS)    =  -86057.45209770     eV
(energies not corrected for finite basis set)
 
NB est. 0K energy (E-0.5TS)      =  -86057.32042448     eV
 
 For future reference: finite basis dEtot/dlog(Ecut) =      -0.172748eV
 Total energy corrected for finite basis set =  -86057.452112 eV

 ******************* Unconstrained Forces *******************
 *                                                          *
 *               Cartesian components (eV/A)                *
 * -------------------------------------------------------- *
 *                         x            y            z      *
 *                                                          *
 * Ti              1     -0.02985     -0.00334     -0.05923 *
 * Ti              2      0.01457     -0.00562      0.00038 *
 * Ti              3      0.01483      0.00027      0.00084 *
 * Ti              4      0.00855     -0.01131      0.00019 *
 * Ti              5      0.00946      0.00202      0.00142 *
 * Ti              6      0.00700     -0.00434     -0.00064 *
 * Ti              7      0.00777     -0.00350     -0.00125 *
 * Ti              8      0.00792     -0.00311     -0.00107 *
 * Ti              9      0.00914     -0.00294      0.00133 *
 * Ti             10      0.00400     -0.00354      0.00513 *
 * Ti             11      0.00742     -0.00270     -0.00232 *
 * Ti             12      0.00661     -0.00345     -0.00336 *
 * Ti             13      0.00542     -0.00377     -0.00193 *
 * Ti             14      0.00697     -0.00283     -0.00244 *
 * Ti             15      0.00578     -0.00352     -0.00300 *
 * Ti             16      0.00574     -0.00494     -0.00074 *
 * Ti             17      0.00634     -0.00345     -0.00164 *
 * Ti             18      0.00616     -0.00341     -0.00250 *
 * Ti             19      0.00604     -0.00400      0.00995 *
 * Ti             20      0.00655     -0.00325      0.00316 *
 * Ti             21      0.00602     -0.00255      0.00437 *
 * Ti             22      0.00498     -0.00298      0.00324 *
 * Ti             23      0.00726     -0.00480      0.00350 *
 * Ti             24      0.00619     -0.00328      0.00388 *
 * Ti             25      0.00613     -0.00442      0.00352 *
 * Ti             26      0.00382     -0.00322      0.00358 *
 * Ti             27      0.00827     -0.00353      0.00363 *
 * Ti             28     -0.00581      0.01268      0.00346 *
 * Ti             29     -0.00886      0.00335     -0.00595 *
 * Ti             30     -0.00677      0.00188     -0.00381 *
 * Ti             31     -0.00637      0.00277     -0.00331 *
 * Ti             32     -0.00386      0.00245     -0.00276 *
 * Ti             33     -0.00894      0.00459     -0.00488 *
 * Ti             34      0.00488     -0.00229      0.00910 *
 * Ti             35     -0.00525      0.00551     -0.00278 *
 * Ti             36     -0.01123      0.00103     -0.00134 *
 * Ti             37     -0.00642      0.00338      0.00168 *
 * Ti             38     -0.00549      0.00380      0.00320 *
 * Ti             39     -0.00623      0.00430      0.00349 *
 * Ti             40     -0.00712      0.00389      0.00101 *
 * Ti             41     -0.00613      0.00339     -0.00002 *
 * Ti             42     -0.00530      0.00361      0.00309 *
 * Ti             43     -0.00627      0.00254      0.00273 *
 * Ti             44     -0.00665      0.00345      0.00084 *
 * Ti             45     -0.00534      0.00359      0.00121 *
 * Ti             46     -0.00716     -0.00574      0.00925 *
 * Ti             47     -0.00419      0.00423      0.00004 *
 * Ti             48     -0.00998      0.00551     -0.00231 *
 * Ti             49     -0.00673      0.00391      0.00085 *
 * Ti             50     -0.00590      0.00365      0.00173 *
 * Ti             51     -0.00648      0.00052     -0.00097 *
 * Ti             52     -0.00962      0.00525      0.00325 *
 * Ti             53     -0.00727      0.00387      0.00073 *
 * Ti             54      0.00539      0.01039      0.01449 *
 *                                                          *
 ************************************************************

 ******************** Constrained Forces ********************
 *                                                          *
 *               Cartesian components (eV/A)                *
 * -------------------------------------------------------- *
 *                         x            y            z      *
 *                                                          *
 * Ti              1     -0.02985     -0.00334     -0.05923 *
 * Ti              2      0.01457     -0.00562      0.00038 *
 * Ti              3      0.01483      0.00027      0.00084 *
 * Ti              4      0.00855     -0.01131      0.00019 *
 * Ti              5      0.00946      0.00202      0.00142 *
 * Ti              6      0.00700     -0.00434     -0.00064 *
 * Ti              7      0.00777     -0.00350     -0.00125 *
 * Ti              8      0.00792     -0.00311     -0.00107 *
 * Ti              9      0.00914     -0.00294      0.00133 *
 * Ti             10      0.00400     -0.00354      0.00513 *
 * Ti             11      0.00742     -0.00270     -0.00232 *
 * Ti             12      0.00661     -0.00345     -0.00336 *
 * Ti             13      0.00542     -0.00377     -0.00193 *
 * Ti             14      0.00697     -0.00283     -0.00244 *
 * Ti             15      0.00578     -0.00352     -0.00300 *
 * Ti             16      0.00574     -0.00494     -0.00074 *
 * Ti             17      0.00634     -0.00345     -0.00164 *
 * Ti             18      0.00616     -0.00341     -0.00250 *
 * Ti             19      0.00604     -0.00400      0.00995 *
 * Ti             20      0.00655     -0.00325      0.00316 *
 * Ti             21      0.00602     -0.00255      0.00437 *
 * Ti             22      0.00498     -0.00298      0.00324 *
 * Ti             23      0.00726     -0.00480      0.00350 *
 * Ti             24      0.00619     -0.00328      0.00388 *
 * Ti             25      0.00613     -0.00442      0.00352 *
 * Ti             26      0.00382     -0.00322      0.00358 *
 * Ti             27      0.00827     -0.00353      0.00363 *
 * Ti             28     -0.00581      0.01268      0.00346 *
 * Ti             29     -0.00886      0.00335     -0.00595 *
 * Ti             30     -0.00677      0.00188     -0.00381 *
 * Ti             31     -0.00637      0.00277     -0.00331 *
 * Ti             32     -0.00386      0.00245     -0.00276 *
 * Ti             33     -0.00894      0.00459     -0.00488 *
 * Ti             34      0.00488     -0.00229      0.00910 *
 * Ti             35     -0.00525      0.00551     -0.00278 *
 * Ti             36     -0.01123      0.00103     -0.00134 *
 * Ti             37     -0.00642      0.00338      0.00168 *
 * Ti             38     -0.00549      0.00380      0.00320 *
 * Ti             39     -0.00623      0.00430      0.00349 *
 * Ti             40     -0.00712      0.00389      0.00101 *
 * Ti             41     -0.00613      0.00339     -0.00002 *
 * Ti             42     -0.00530      0.00361      0.00309 *
 * Ti             43     -0.00627      0.00254      0.00273 *
 * Ti             44     -0.00665      0.00345      0.00084 *
 * Ti             45     -0.00534      0.00359      0.00121 *
 * Ti             46     -0.00716     -0.00574      0.00925 *
 * Ti             47     -0.00419      0.00423      0.00004 *
 * Ti             48     -0.00998      0.00551     -0.00231 *
 * Ti             49     -0.00673      0.00391      0.00085 *
 * Ti             50     -0.00590      0.00365      0.00173 *
 * Ti             51     -0.00648      0.00052     -0.00097 *
 * Ti             52     -0.00962      0.00525      0.00325 *
 * Ti             53     -0.00727      0.00387      0.00073 *
 * Ti             54      0.00539      0.01039      0.01449 *
 *                                                          *
 ************************************************************

 ***************** Stress Tensor *****************
 *                                               *
 *          Cartesian components (GPa)           *
 * --------------------------------------------- *
 *             x             y             z     *
 *                                               *
 *  x     -0.718276      0.173230     -0.000120  *
 *  y      0.173230     -0.521176     -0.000270  *
 *  z     -0.000120     -0.000270     -0.475028  *
 *                                               *
 *  Pressure:    0.5715                          *
 *                                               *
 *************************************************

 Pseudo atomic calculation performed for Ti 3s2 3p6 3d2 4s2

 Converged in 31 iterations to a total energy of -1585.9719 eV

Charge spilling parameter for spin component 1 = 0.07%

     Atomic Populations (Mulliken)
     -----------------------------
Species          Ion     s      p      d      f     Total  Charge (e)
=====================================================================
  Ti              1     2.31   6.92   2.77   0.00  12.00     0.00
  Ti              2     2.31   6.92   2.77   0.00  12.00     0.00
  Ti              3     2.31   6.92   2.77   0.00  12.00     0.00
  Ti              4     2.31   6.92   2.77   0.00  12.00     0.00
  Ti              5     2.31   6.92   2.77   0.00  12.00     0.00
  Ti              6     2.31   6.92   2.77   0.00  12.00     0.00
  Ti              7     2.31   6.92   2.77   0.00  12.00    -0.00
  Ti              8     2.31   6.92   2.77   0.00  12.00    -0.00
  Ti              9     2.31   6.92   2.77   0.00  12.00     0.00
  Ti             10     2.31   6.92   2.77   0.00  12.00     0.00
  Ti             11     2.31   6.92   2.77   0.00  12.00    -0.00
  Ti             12     2.31   6.92   2.77   0.00  12.00     0.00
  Ti             13     2.31   6.92   2.77   0.00  12.00    -0.00
  Ti             14     2.31   6.92   2.77   0.00  12.00     0.00
  Ti             15     2.31   6.92   2.77   0.00  12.00    -0.00
  Ti             16     2.31   6.92   2.77   0.00  12.00    -0.00
  Ti             17     2.31   6.92   2.77   0.00  12.00    -0.00
  Ti             18     2.31   6.92   2.77   0.00  12.00     0.00
  Ti             19     2.31   6.92   2.77   0.00  12.00     0.00
  Ti             20     2.31   6.92   2.77   0.00  12.00     0.00
  Ti             21     2.31   6.92   2.77   0.00  12.00    -0.00
  Ti             22     2.31   6.92   2.77   0.00  12.00     0.00
  Ti             23     2.31   6.92   2.77   0.00  12.00    -0.00
  Ti             24     2.31   6.92   2.77   0.00  12.00     0.00
  Ti             25     2.31   6.92   2.77   0.00  12.00     0.00
  Ti             26     2.31   6.92   2.77   0.00  12.00    -0.00
  Ti             27     2.31   6.92   2.77   0.00  12.00    -0.00
  Ti             28     2.31   6.92   2.77   0.00  12.00    -0.00
  Ti             29     2.31   6.92   2.77   0.00  12.00     0.00
  Ti             30     2.31   6.92   2.77   0.00  12.00     0.00
  Ti             31     2.31   6.92   2.77   0.00  12.00    -0.00
  Ti             32     2.31   6.92   2.77   0.00  12.00     0.00
  Ti             33     2.31   6.92   2.77   0.00  12.00     0.00
  Ti             34     2.31   6.92   2.77   0.00  12.00    -0.00
  Ti             35     2.31   6.92   2.77   0.00  12.00     0.00
  Ti             36     2.31   6.92   2.77   0.00  12.00     0.00
  Ti             37     2.31   6.92   2.77   0.00  12.00    -0.00
  Ti             38     2.31   6.92   2.77   0.00  12.00    -0.00
  Ti             39     2.31   6.92   2.77   0.00  12.00    -0.00
  Ti             40     2.31   6.92   2.77   0.00  12.00     0.00
  Ti             41     2.31   6.92   2.77   0.00  12.00    -0.00
  Ti             42     2.31   6.92   2.77   0.00  12.00     0.00
  Ti             43     2.31   6.92   2.77   0.00  12.00    -0.00
  Ti             44     2.31   6.92   2.77   0.00  12.00    -0.00
  Ti             45     2.31   6.92   2.77   0.00  12.00    -0.00
  Ti             46     2.31   6.92   2.77   0.00  12.00    -0.00
  Ti             47     2.31   6.92   2.77   0.00  12.00     0.00
  Ti             48     2.31   6.92   2.77   0.00  12.00     0.00
  Ti             49     2.31   6.92   2.77   0.00  12.00     0.00
  Ti             50     2.31   6.92   2.77   0.00  12.00    -0.00
  Ti             51     2.31   6.92   2.77   0.00  12.00     0.00
  Ti             52     2.31   6.92   2.77   0.00  12.00     0.00
  Ti             53     2.31   6.92   2.77   0.00  12.00     0.00
  Ti             54     2.31   6.92   2.77   0.00  12.00    -0.00
=====================================================================

                 Bond                   Population      Length (A)
======================================================================
             Ti 1  -- Ti 34                  0.11        2.79227
             Ti 1  -- Ti 28                  0.11        2.79501
             Ti 1  -- Ti 36                  0.11        2.79773
             Ti 19 -- Ti 43                  0.11        2.80183
             Ti 10 -- Ti 34                  0.11        2.80183
             Ti 19 -- Ti 52                  0.11        2.80183
             Ti 10 -- Ti 43                  0.11        2.80183
             Ti 25 -- Ti 40                  0.11        2.80183
             Ti 16 -- Ti 31                  0.11        2.80183
             Ti 7  -- Ti 31                  0.11        2.80183
             Ti 25 -- Ti 49                  0.11        2.80183
             Ti 16 -- Ti 40                  0.11        2.80183
             Ti 7  -- Ti 49                  0.11        2.80183
             Ti 24 -- Ti 39                  0.11        2.80183
             Ti 20 -- Ti 44                  0.11        2.80183
             Ti 23 -- Ti 38                  0.11        2.80183
             Ti 22 -- Ti 37                  0.11        2.80183
             Ti 21 -- Ti 45                  0.11        2.80183
             Ti 15 -- Ti 30                  0.11        2.80183
             Ti 11 -- Ti 35                  0.11        2.80183
             Ti 6  -- Ti 30                  0.11        2.80183
             Ti 2  -- Ti 35                  0.11        2.80183
             Ti 14 -- Ti 29                  0.11        2.80183
             Ti 13 -- Ti 28                  0.11        2.80183
             Ti 12 -- Ti 36                  0.11        2.80183
             Ti 5  -- Ti 29                  0.11        2.80183
             Ti 4  -- Ti 28                  0.11        2.80183
             Ti 3  -- Ti 36                  0.11        2.80183
             Ti 24 -- Ti 48                  0.11        2.80183
             Ti 20 -- Ti 53                  0.11        2.80183
             Ti 15 -- Ti 39                  0.11        2.80183
             Ti 11 -- Ti 44                  0.11        2.80183
             Ti 6  -- Ti 48                  0.11        2.80183
             Ti 2  -- Ti 53                  0.11        2.80183
             Ti 23 -- Ti 47                  0.11        2.80183
             Ti 22 -- Ti 46                  0.11        2.80183
             Ti 21 -- Ti 54                  0.11        2.80183
             Ti 14 -- Ti 38                  0.11        2.80183
             Ti 13 -- Ti 37                  0.11        2.80183
             Ti 12 -- Ti 45                  0.11        2.80183
             Ti 5  -- Ti 47                  0.11        2.80183
             Ti 4  -- Ti 46                  0.11        2.80183
             Ti 3  -- Ti 54                  0.11        2.80183
             Ti 27 -- Ti 42                  0.11        2.80183
             Ti 26 -- Ti 41                  0.11        2.80183
             Ti 18 -- Ti 33                  0.11        2.80183
             Ti 17 -- Ti 32                  0.11        2.80183
             Ti 9  -- Ti 33                  0.11        2.80183
             Ti 8  -- Ti 32                  0.11        2.80183
             Ti 27 -- Ti 51                  0.11        2.80183
             Ti 26 -- Ti 50                  0.11        2.80183
             Ti 18 -- Ti 42                  0.11        2.80183
             Ti 17 -- Ti 41                  0.11        2.80183
             Ti 9  -- Ti 51                  0.11        2.80183
             Ti 8  -- Ti 50                  0.11        2.80183
             Ti 23 -- Ti 37                  0.11        2.80183
             Ti 21 -- Ti 44                  0.11        2.80183
             Ti 24 -- Ti 38                  0.11        2.80183
             Ti 12 -- Ti 35                  0.11        2.80183
             Ti 3  -- Ti 35                  0.11        2.80183
             Ti 14 -- Ti 28                  0.11        2.80183
             Ti 5  -- Ti 28                  0.11        2.80183
             Ti 15 -- Ti 29                  0.11        2.80183
             Ti 6  -- Ti 29                  0.11        2.80183
             Ti 23 -- Ti 46                  0.11        2.80183
             Ti 21 -- Ti 53                  0.11        2.80183
             Ti 14 -- Ti 37                  0.11        2.80183
             Ti 12 -- Ti 44                  0.11        2.80183
             Ti 5  -- Ti 46                  0.11        2.80183
             Ti 3  -- Ti 53                  0.11        2.80183
             Ti 24 -- Ti 47                  0.11        2.80183
             Ti 15 -- Ti 38                  0.11        2.80183
             Ti 6  -- Ti 47                  0.11        2.80183
             Ti 27 -- Ti 41                  0.11        2.80183
             Ti 18 -- Ti 32                  0.11        2.80183
             Ti 9  -- Ti 32                  0.11        2.80183
             Ti 27 -- Ti 50                  0.11        2.80183
             Ti 18 -- Ti 41                  0.11        2.80183
             Ti 9  -- Ti 50                  0.11        2.80183
             Ti 22 -- Ti 39                  0.11        2.80183
             Ti 20 -- Ti 43                  0.11        2.80183
             Ti 19 -- Ti 45                  0.11        2.80183
             Ti 11 -- Ti 34                  0.11        2.80183
             Ti 10 -- Ti 36                  0.11        2.80183
             Ti 2  -- Ti 34                  0.11        2.80183
             Ti 13 -- Ti 30                  0.11        2.80183
             Ti 4  -- Ti 30                  0.11        2.80183
             Ti 20 -- Ti 52                  0.11        2.80183
             Ti 19 -- Ti 54                  0.11        2.80183
             Ti 11 -- Ti 43                  0.11        2.80183
             Ti 10 -- Ti 45                  0.11        2.80183
             Ti 2  -- Ti 52                  0.11        2.80183
             Ti 22 -- Ti 48                  0.11        2.80183
             Ti 13 -- Ti 39                  0.11        2.80183
             Ti 4  -- Ti 48                  0.11        2.80183
             Ti 24 -- Ti 42                  0.11        2.80183
             Ti 23 -- Ti 41                  0.11        2.80183
             Ti 27 -- Ti 45                  0.11        2.80183
             Ti 26 -- Ti 44                  0.11        2.80183
             Ti 21 -- Ti 39                  0.11        2.80183
             Ti 20 -- Ti 38                  0.11        2.80183
             Ti 19 -- Ti 37                  0.11        2.80183
             Ti 15 -- Ti 33                  0.11        2.80183
             Ti 14 -- Ti 32                  0.11        2.80183
             Ti 6  -- Ti 33                  0.11        2.80183
             Ti 5  -- Ti 32                  0.11        2.80183
             Ti 18 -- Ti 36                  0.11        2.80183
             Ti 17 -- Ti 35                  0.11        2.80183
             Ti 12 -- Ti 30                  0.11        2.80183
             Ti 11 -- Ti 29                  0.11        2.80183
             Ti 10 -- Ti 28                  0.11        2.80183
             Ti 9  -- Ti 36                  0.11        2.80183
             Ti 8  -- Ti 35                  0.11        2.80183
             Ti 3  -- Ti 30                  0.11        2.80183
             Ti 2  -- Ti 29                  0.11        2.80183
             Ti 24 -- Ti 51                  0.11        2.80183
             Ti 23 -- Ti 50                  0.11        2.80183
             Ti 15 -- Ti 42                  0.11        2.80183
             Ti 14 -- Ti 41                  0.11        2.80183
             Ti 6  -- Ti 51                  0.11        2.80183
             Ti 5  -- Ti 50                  0.11        2.80183
             Ti 21 -- Ti 48                  0.11        2.80183
             Ti 20 -- Ti 47                  0.11        2.80183
             Ti 19 -- Ti 46                  0.11        2.80183
             Ti 12 -- Ti 39                  0.11        2.80183
             Ti 11 -- Ti 38                  0.11        2.80183
             Ti 10 -- Ti 37                  0.11        2.80183
             Ti 3  -- Ti 48                  0.11        2.80183
             Ti 2  -- Ti 47                  0.11        2.80183
             Ti 27 -- Ti 54                  0.11        2.80183
             Ti 26 -- Ti 53                  0.11        2.80183
             Ti 18 -- Ti 45                  0.11        2.80183
             Ti 17 -- Ti 44                  0.11        2.80183
             Ti 9  -- Ti 54                  0.11        2.80183
             Ti 8  -- Ti 53                  0.11        2.80183
             Ti 22 -- Ti 40                  0.11        2.80183
             Ti 25 -- Ti 43                  0.11        2.80183
             Ti 13 -- Ti 31                  0.11        2.80183
             Ti 4  -- Ti 31                  0.11        2.80183
             Ti 16 -- Ti 34                  0.11        2.80183
             Ti 7  -- Ti 34                  0.11        2.80183
             Ti 22 -- Ti 49                  0.11        2.80183
             Ti 13 -- Ti 40                  0.11        2.80183
             Ti 4  -- Ti 49                  0.11        2.80183
             Ti 25 -- Ti 52                  0.11        2.80183
             Ti 16 -- Ti 43                  0.11        2.80183
             Ti 7  -- Ti 52                  0.11        2.80183
             Ti 26 -- Ti 40                  0.11        2.80183
             Ti 25 -- Ti 42                  0.11        2.80183
             Ti 17 -- Ti 31                  0.11        2.80183
             Ti 16 -- Ti 33                  0.11        2.80183
             Ti 8  -- Ti 31                  0.11        2.80183
             Ti 7  -- Ti 33                  0.11        2.80183
             Ti 26 -- Ti 49                  0.11        2.80183
             Ti 25 -- Ti 51                  0.11        2.80183
             Ti 17 -- Ti 40                  0.11        2.80183
             Ti 16 -- Ti 42                  0.11        2.80183
             Ti 8  -- Ti 49                  0.11        2.80183
             Ti 7  -- Ti 51                  0.11        2.80183
             Ti 1  -- Ti 52                  0.11        2.80595
             Ti 1  -- Ti 46                  0.11        2.80867
             Ti 1  -- Ti 54                  0.11        2.81139
             Ti 1  -- Ti 2                   0.23        2.85346
             Ti 1  -- Ti 7                   0.23        2.85613
             Ti 1  -- Ti 5                   0.23        2.85613
             Ti 46 -- Ti 52                  0.23        2.85879
             Ti 37 -- Ti 43                  0.23        2.85879
             Ti 28 -- Ti 34                  0.23        2.85879
             Ti 21 -- Ti 26                  0.23        2.85879
             Ti 20 -- Ti 25                  0.23        2.85879
             Ti 12 -- Ti 17                  0.23        2.85879
             Ti 11 -- Ti 16                  0.23        2.85879
             Ti 3  -- Ti 8                   0.23        2.85879
             Ti 2  -- Ti 7                   0.23        2.85879
             Ti 48 -- Ti 53                  0.23        2.85879
             Ti 48 -- Ti 51                  0.23        2.85879
             Ti 47 -- Ti 51                  0.23        2.85879
             Ti 47 -- Ti 50                  0.23        2.85879
             Ti 39 -- Ti 44                  0.23        2.85879
             Ti 39 -- Ti 42                  0.23        2.85879
             Ti 38 -- Ti 42                  0.23        2.85879
             Ti 38 -- Ti 41                  0.23        2.85879
             Ti 30 -- Ti 35                  0.23        2.85879
             Ti 30 -- Ti 33                  0.23        2.85879
             Ti 29 -- Ti 33                  0.23        2.85879
             Ti 29 -- Ti 32                  0.23        2.85879
             Ti 48 -- Ti 54                  0.23        2.85879
             Ti 48 -- Ti 49                  0.23        2.85879
             Ti 47 -- Ti 53                  0.23        2.85879
             Ti 46 -- Ti 50                  0.23        2.85879
             Ti 39 -- Ti 45                  0.23        2.85879
             Ti 39 -- Ti 40                  0.23        2.85879
             Ti 38 -- Ti 44                  0.23        2.85879
             Ti 37 -- Ti 41                  0.23        2.85879
             Ti 30 -- Ti 36                  0.23        2.85879
             Ti 30 -- Ti 31                  0.23        2.85879
             Ti 29 -- Ti 35                  0.23        2.85879
             Ti 28 -- Ti 32                  0.23        2.85879
             Ti 21 -- Ti 27                  0.23        2.85879
             Ti 21 -- Ti 24                  0.23        2.85879
             Ti 20 -- Ti 26                  0.23        2.85879
             Ti 19 -- Ti 25                  0.23        2.85879
             Ti 12 -- Ti 18                  0.23        2.85879
             Ti 12 -- Ti 15                  0.23        2.85879
             Ti 11 -- Ti 17                  0.23        2.85879
             Ti 10 -- Ti 16                  0.23        2.85879
             Ti 3  -- Ti 9                   0.23        2.85879
             Ti 3  -- Ti 6                   0.23        2.85879
             Ti 2  -- Ti 8                   0.23        2.85879
             Ti 20 -- Ti 23                  0.23        2.85879
             Ti 19 -- Ti 23                  0.23        2.85879
             Ti 19 -- Ti 22                  0.23        2.85879
             Ti 11 -- Ti 14                  0.23        2.85879
             Ti 10 -- Ti 14                  0.23        2.85879
             Ti 10 -- Ti 13                  0.23        2.85879
             Ti 2  -- Ti 5                   0.23        2.85879
             Ti 20 -- Ti 24                  0.23        2.85879
             Ti 11 -- Ti 15                  0.23        2.85879
             Ti 2  -- Ti 6                   0.23        2.85879
             Ti 52 -- Ti 54                  0.23        2.85879
             Ti 50 -- Ti 51                  0.23        2.85879
             Ti 43 -- Ti 45                  0.23        2.85879
             Ti 41 -- Ti 42                  0.23        2.85879
             Ti 34 -- Ti 36                  0.23        2.85879
             Ti 32 -- Ti 33                  0.23        2.85879
             Ti 22 -- Ti 23                  0.23        2.85879
             Ti 13 -- Ti 14                  0.23        2.85879
             Ti 4  -- Ti 5                   0.23        2.85879
             Ti 47 -- Ti 48                  0.23        2.85879
             Ti 46 -- Ti 47                  0.23        2.85879
             Ti 38 -- Ti 39                  0.23        2.85879
             Ti 37 -- Ti 38                  0.23        2.85879
             Ti 29 -- Ti 30                  0.23        2.85879
             Ti 28 -- Ti 29                  0.23        2.85879
             Ti 26 -- Ti 27                  0.23        2.85879
             Ti 25 -- Ti 26                  0.23        2.85879
             Ti 20 -- Ti 21                  0.23        2.85879
             Ti 19 -- Ti 20                  0.23        2.85879
             Ti 17 -- Ti 18                  0.23        2.85879
             Ti 16 -- Ti 17                  0.23        2.85879
             Ti 11 -- Ti 12                  0.23        2.85879
             Ti 10 -- Ti 11                  0.23        2.85879
             Ti 8  -- Ti 9                   0.23        2.85879
             Ti 7  -- Ti 8                   0.23        2.85879
             Ti 2  -- Ti 3                   0.23        2.85879
             Ti 53 -- Ti 54                  0.23        2.85879
             Ti 49 -- Ti 51                  0.23        2.85879
             Ti 44 -- Ti 45                  0.23        2.85879
             Ti 40 -- Ti 42                  0.23        2.85879
             Ti 35 -- Ti 36                  0.23        2.85879
             Ti 31 -- Ti 33                  0.23        2.85879
             Ti 23 -- Ti 24                  0.23        2.85879
             Ti 14 -- Ti 15                  0.23        2.85879
             Ti 5  -- Ti 6                   0.23        2.85879
             Ti 47 -- Ti 52                  0.23        2.85879
             Ti 46 -- Ti 54                  0.23        2.85879
             Ti 46 -- Ti 49                  0.23        2.85879
             Ti 38 -- Ti 43                  0.23        2.85879
             Ti 37 -- Ti 45                  0.23        2.85879
             Ti 37 -- Ti 40                  0.23        2.85879
             Ti 29 -- Ti 34                  0.23        2.85879
             Ti 28 -- Ti 36                  0.23        2.85879
             Ti 28 -- Ti 31                  0.23        2.85879
             Ti 19 -- Ti 27                  0.23        2.85879
             Ti 10 -- Ti 18                  0.23        2.85879
             Ti 21 -- Ti 22                  0.23        2.85879
             Ti 12 -- Ti 13                  0.23        2.85879
             Ti 3  -- Ti 4                   0.23        2.85879
             Ti 23 -- Ti 26                  0.23        2.85879
             Ti 22 -- Ti 25                  0.23        2.85879
             Ti 14 -- Ti 17                  0.23        2.85879
             Ti 13 -- Ti 16                  0.23        2.85879
             Ti 5  -- Ti 8                   0.23        2.85879
             Ti 4  -- Ti 7                   0.23        2.85879
             Ti 24 -- Ti 27                  0.23        2.85879
             Ti 15 -- Ti 18                  0.23        2.85879
             Ti 6  -- Ti 9                   0.23        2.85879
             Ti 51 -- Ti 54                  0.23        2.85879
             Ti 42 -- Ti 45                  0.23        2.85879
             Ti 33 -- Ti 36                  0.23        2.85879
             Ti 23 -- Ti 27                  0.23        2.85879
             Ti 22 -- Ti 26                  0.23        2.85879
             Ti 14 -- Ti 18                  0.23        2.85879
             Ti 13 -- Ti 17                  0.23        2.85879
             Ti 5  -- Ti 9                   0.23        2.85879
             Ti 4  -- Ti 8                   0.23        2.85879
             Ti 50 -- Ti 54                  0.23        2.85879
             Ti 50 -- Ti 53                  0.23        2.85879
             Ti 49 -- Ti 52                  0.23        2.85879
             Ti 41 -- Ti 45                  0.23        2.85879
             Ti 41 -- Ti 44                  0.23        2.85879
             Ti 40 -- Ti 43                  0.23        2.85879
             Ti 32 -- Ti 36                  0.23        2.85879
             Ti 32 -- Ti 35                  0.23        2.85879
             Ti 31 -- Ti 34                  0.23        2.85879
             Ti 51 -- Ti 52                  0.23        2.85879
             Ti 42 -- Ti 43                  0.23        2.85879
             Ti 33 -- Ti 34                  0.23        2.85879
             Ti 22 -- Ti 24                  0.23        2.85879
             Ti 13 -- Ti 15                  0.23        2.85879
             Ti 4  -- Ti 6                   0.23        2.85879
             Ti 52 -- Ti 53                  0.23        2.85879
             Ti 43 -- Ti 44                  0.23        2.85879
             Ti 34 -- Ti 35                  0.23        2.85879
             Ti 49 -- Ti 50                  0.23        2.85879
             Ti 46 -- Ti 48                  0.23        2.85879
             Ti 40 -- Ti 41                  0.23        2.85879
             Ti 37 -- Ti 39                  0.23        2.85879
             Ti 31 -- Ti 32                  0.23        2.85879
             Ti 28 -- Ti 30                  0.23        2.85879
             Ti 25 -- Ti 27                  0.23        2.85879
             Ti 19 -- Ti 21                  0.23        2.85879
             Ti 16 -- Ti 18                  0.23        2.85879
             Ti 10 -- Ti 12                  0.23        2.85879
             Ti 7  -- Ti 9                   0.23        2.85879
             Ti 24 -- Ti 25                  0.23        2.85879
             Ti 15 -- Ti 16                  0.23        2.85879
             Ti 6  -- Ti 7                   0.23        2.85879
             Ti 49 -- Ti 53                  0.23        2.85879
             Ti 40 -- Ti 44                  0.23        2.85879
             Ti 31 -- Ti 35                  0.23        2.85879
             Ti 1  -- Ti 4                   0.23        2.86147
             Ti 1  -- Ti 9                   0.23        2.86147
             Ti 1  -- Ti 3                   0.23        2.86414
======================================================================

 
 A BibTeX formatted list of references used in this run has been written to 
 castep.bib
 
Initialisation time =     11.01 s
Calculation time    =   1825.09 s
Finalisation time   =      0.09 s
Total time          =   1836.19 s
Peak Memory Use     = 1576856 kB
  
Overall parallel efficiency rating: Very good (81%)                             
  
Data was distributed by:-
G-vector (3-way); efficiency rating: Very good (83%)                            
k-point (16-way); efficiency rating: Excellent (97%)                            
