16
Lattice="5.717572460325659 -1.818335477214802e-15 9.742549202917687e-41 -2.8587862301628277 4.951562998620313 4.93924354333373e-25 4.563675589437977e-40 9.05691531973384e-25 9.05629220753238" Properties=species:S:1:pos:R:3:forces:R:3 pbc="T T T"
Ti       0.00533847      -0.00000000       0.00845581      -0.02504321       0.00002995      -0.05027603 
Ti       2.85878623      -0.00000000       0.00000000       0.01124778       0.00000345      -0.00885865 
Ti      -1.42939312       2.47578150       0.00000000       0.00377183      -0.00430881      -0.00887313 
Ti       1.42939312       2.47578150       0.00000000       0.00379369       0.00431048      -0.00884372 
Ti       0.00000000       0.00000000       4.52814610      -0.00286356       0.00000155       0.01263376 
Ti       2.85878623      -0.00000000       4.52814610       0.00212432       0.00000189       0.00828817 
Ti      -1.42939312       2.47578150       4.52814610       0.00039387      -0.00099747       0.00828561 
Ti       1.42939312       2.47578150       4.52814610       0.00039564       0.00099964       0.00829055 
Ti      -0.00000143       1.65052182       2.26407305       0.00019010       0.00322111       0.00750611 
Ti       2.85878480       1.65052182       2.26407305      -0.00127687       0.00000030      -0.00262485 
Ti      -1.42939455       4.12630332       2.26407305       0.00490985      -0.00273362       0.00930323 
Ti       1.42939169       4.12630332       2.26407305      -0.00067556      -0.00050843       0.00574542 
Ti      -0.00000143       1.65052182       6.79221915       0.00020394      -0.00304768       0.00734714 
Ti       2.85878480       1.65052182       6.79221915      -0.00123073       0.00000044      -0.00258218 
Ti      -1.42939455       4.12630332       6.79221915      -0.00060684       0.00045963       0.00568002 
Ti       1.42939169       4.12630332       6.79221915       0.00466574       0.00256757       0.00897855 
