2
Lattice="2.7193296078126865 6.109270895939567e-13 -7.53543462836798e-13 -1.3596648039058135 2.3550085219433745 7.616519575135333e-13 -1.196627018984836e-12 7.057411900023244e-13 4.288367171001685" Properties=species:S:1:pos:R:3 energy=-3186.9285648 pbc="T T T" n_minim_iter=0
Ti       0.00000000      -0.00000000       0.00000000 
Ti      -0.00000000       1.57000568       2.14418359 
