2
Lattice="2.6368743977563254 5.92402626300921e-13 -7.306946017291577e-13 -1.3184371988776489 2.28360021535065 7.385572315317381e-13 -1.160343027545903e-12 6.843417840973245e-13 4.158335778386442" Properties=species:S:1:pos:R:3 energy=-3186.56904133 pbc="T T T" n_minim_iter=0
Ti       0.00000000      -0.00000000       0.00000000 
Ti      -0.00000000       1.52240014       2.07916789 
