2
Lattice="2.77163718419038 6.226785577897676e-13 -7.680382236495382e-13 -1.38581859209465 2.4003082119028996 7.763026890123546e-13 -1.2196446991554673e-12 7.193164517480398e-13 4.370855918481323" Properties=species:S:1:pos:R:3 energy=-3187.12933986 pbc="T T T" n_minim_iter=0
Ti       0.00000000      -0.00000000       0.00000000 
Ti      -0.00000000       1.60020547       2.18542796 
