2
Lattice="2.846582321902009 6.395158013257627e-13 -7.8880599612984e-13 -1.4232911609504502 2.465212605059959 7.97293932839578e-13 -1.2526239218541863e-12 7.387667863163591e-13 4.489043970148685" Properties=species:S:1:pos:R:3 energy=-3187.27711429 pbc="T T T" n_minim_iter=0
Ti       0.00000000      -0.00000000       0.00000000 
Ti      -0.00000000       1.64347507       2.24452199 
