2
Lattice="3.27069757088866 0.02242323949054086 0.027046787519444594 0.02242323949054086 3.2706975708876715 0.02704678752412077 0.027046787519444594 0.027046787524120777 3.273363909510462" Properties=species:S:1:pos:R:3:forces:R:3 pbc="T T T" energy=-11.9593275407 stress="-0.007801754034593926 -0.009062219735113375 -0.008732544861047256 -0.009062219735113375 -0.007801754036255499 -0.008732544864650355 -0.008732544861047256 -0.008732544864650355 -0.007465928128382749" n_minim_iter=4
Ti       0.00000000      -0.00000000       0.00000000       0.00000000       0.00000000      -0.00000000 
Ti       1.66008380       1.66008380       1.66372874      -0.00000000      -0.00000000       0.00000000 
