2
Lattice="3.32 0.0 0.0 0.0 3.32 0.0 0.0 0.0 3.32" Properties=species:S:1:pos:R:3 energy=-3187.36609856 pbc="T T T" n_minim_iter=1
Ti       0.00000000       0.00000000       0.00000000 
Ti       1.66000000       1.66000000       1.66000000 
2
Lattice="3.3163771936050694 4.4729728516362056e-17 -2.362467127850264e-18 4.4729728516362056e-17 3.3163771936050694 -9.785470950710708e-19 -2.362467127850264e-18 -9.785470950710708e-19 3.3163771936050694" Properties=species:S:1:pos:R:3 stress="0.22312515828614393 1.2784032612275578e-14 2.3928506099096895e-17 1.2784032612275578e-14 0.22312515828614393 -1.9480425744275436e-16 2.3928506099096895e-17 -1.9480425744275436e-16 0.22312515828614393" pbc="T T T" n_minim_iter=2
Ti       0.00000000       0.00000000       0.00000000 
Ti       1.65818860       1.65818860       1.65818860 
2
Lattice="3.306989291320217 -4.925179471344761e-16 -3.3611355708868747e-18 -4.925179471344761e-16 3.306989291320217 7.208922693693686e-18 -3.3611355708868747e-18 7.208922693693684e-18 3.306989291320217" Properties=species:S:1:pos:R:3 stress="-0.026365649041373652 1.663834070487334e-11 -2.0005777069568478e-17 1.663834070487334e-11 -0.02636564904137444 -0.0 -2.0005777069568478e-17 -0.0 -0.026365649048376953" pbc="T T T" n_minim_iter=3
Ti       0.00000000       0.00000000       0.00000000 
Ti       1.65349465       1.65349465       1.65349465 
2
Lattice="3.307972615600954 -1.4843237126764754e-13 -3.1038804514556985e-18 -1.4843237126764754e-13 3.307972615600954 6.557159610650977e-18 -3.1038804514556978e-18 6.557159610650977e-18 3.3079726156010163" Properties=species:S:1:pos:R:3 stress="-0.006359024862506532 1.2975784161169484e-13 4.170978788403832e-14 1.2975784161169484e-13 -0.006359024863721977 1.1743219917049294e-12 4.170978788403832e-14 1.1743219917049294e-12 -0.006359024846742743" pbc="T T T" n_minim_iter=4
Ti      -0.00000000       0.00000000       0.00000000 
Ti       1.65398631       1.65398631       1.65398631 
