2
Lattice="3.038522615913181 -1.3634185328599938e-13 -2.8510547228715803e-18 -1.3634185328599938e-13 3.038522615913181 6.023047977830944e-18 -2.8510547228715795e-18 6.023047977830944e-18 3.038522615913238" Properties=species:S:1:pos:R:3 energy=-3189.52489325 pbc="T T T" n_minim_iter=0
Ti      -0.00000000       0.00000000       0.00000000 
Ti       1.51926131       1.51926131       1.51926131 
