2
Lattice="3.4404301624051206 -1.5437588714553404e-13 -3.228165757880021e-18 -1.5437588714553404e-13 3.4404301624051206 6.819720815642212e-18 -3.2281657578800202e-18 6.819720815642212e-18 3.440430162405185" Properties=species:S:1:pos:R:3 energy=-3131.83979199 pbc="T T T" n_minim_iter=0
Ti      -0.00000000       0.00000000       0.00000000 
Ti       1.72021508       1.72021508       1.72021508 
