2
Lattice="3.102510227657679 -1.392130478352517e-13 -2.911094487497323e-18 -1.392130478352517e-13 3.102510227657679 6.149886084450763e-18 -2.911094487497322e-18 6.149886084450763e-18 3.102510227657737" Properties=species:S:1:pos:R:3 energy=-3187.111 pbc="T T T" n_minim_iter=0
Ti      -0.00000000       0.00000000       0.00000000 
Ti       1.55125511       1.55125511       1.55125511 
