2
Lattice="3.5152454465897702 -1.577329312716605e-13 -3.298365159457791e-18 -1.577329312716605e-13 3.5152454465897702 6.968021849756376e-18 -3.2983651594577902e-18 6.968021849756376e-18 3.5152454465898364" Properties=species:S:1:pos:R:3 energy=-2885.7019601 pbc="T T T" n_minim_iter=0
Ti      -0.00000000       0.00000000       0.00000000 
Ti       1.75762272       1.75762272       1.75762272 
