2
Lattice="3.070849750894049 -1.3779240740451582e-13 -2.8813873688691523e-18 -1.3779240740451582e-13 3.070849750894049 6.087127765802859e-18 -2.8813873688691515e-18 6.087127765802859e-18 3.070849750894107" Properties=species:S:1:pos:R:3 energy=-3187.31660016 pbc="T T T" n_minim_iter=0
Ti      -0.00000000       0.00000000       0.00000000 
Ti       1.53542488       1.53542488       1.53542488 
