2
Lattice="3.3622113149401116 -1.5086612138982671e-13 -3.1547727828484148e-18 -1.5086612138982671e-13 3.3622113149401116 6.664673139319156e-18 -3.154772782848414e-18 6.664673139319156e-18 3.3622113149401747" Properties=species:S:1:pos:R:3 energy=-3184.49439197 pbc="T T T" n_minim_iter=0
Ti      -0.00000000       0.00000000       0.00000000 
Ti       1.68110566       1.68110566       1.68110566 
