2
Lattice="3.4147543535590534 -1.5322378534962959e-13 -3.2040740707914495e-18 -1.5322378534962959e-13 3.4147543535590534 6.7688254799486176e-18 -3.2040740707914487e-18 6.7688254799486176e-18 3.4147543535591174" Properties=species:S:1:pos:R:3 energy=-3161.62176177 pbc="T T T" n_minim_iter=0
Ti      -0.00000000       0.00000000       0.00000000 
Ti       1.70737718       1.70737718       1.70737718 
