2
Lattice="3.005492580166645 -1.34859759236674e-13 -2.8200625430146345e-18 -1.34859759236674e-13 3.005492580166645 5.957574879500534e-18 -2.8200625430146337e-18 5.957574879500534e-18 3.0054925801667016" Properties=species:S:1:pos:R:3 energy=-3204.1829604 pbc="T T T" n_minim_iter=0
Ti      -0.00000000       0.00000000       0.00000000 
Ti       1.50274629       1.50274629       1.50274629 
