2
Lattice="3.388686509840108 -1.5205409251759427e-13 -3.1796145362266092e-18 -1.5205409251759427e-13 3.388686509840108 6.717153041318234e-18 -3.1796145362266085e-18 6.717153041318234e-18 3.3886865098401717" Properties=species:S:1:pos:R:3 energy=-3177.36860581 pbc="T T T" n_minim_iter=0
Ti      -0.00000000       0.00000000       0.00000000 
Ti       1.69434325       1.69434325       1.69434325 
