2
Lattice="3.307972615600954 -1.4843237126764754e-13 -3.1038804514556985e-18 -1.4843237126764754e-13 3.307972615600954 6.557159610650977e-18 -3.1038804514556978e-18 6.557159610650977e-18 3.3079726156010163" Properties=species:S:1:pos:R:3 stress="-0.006359024862506532 1.2975784161169484e-13 4.170978788403832e-14 1.2975784161169484e-13 -0.006359024863721977 1.1743219917049294e-12 4.170978788403832e-14 1.1743219917049294e-12 -0.006359024846742743" pbc="T T T" n_minim_iter=4
Ti      -0.00000000       0.00000000       0.00000000 
Ti       1.65398631       1.65398631       1.65398631 
