2
Lattice="3.193812444928841 -1.4330987879075541e-13 -2.9967636269654072e-18 -1.4330987879075541e-13 3.193812444928841 6.330867997248304e-18 -2.9967636269654065e-18 6.330867997248304e-18 3.1938124449289016" Properties=species:S:1:pos:R:3 energy=-3187.11967429 pbc="T T T" n_minim_iter=0
Ti      -0.00000000       0.00000000       0.00000000 
Ti       1.59690622       1.59690622       1.59690622 
