2
Lattice="3.4906625063254246 -1.5662986769158162e-13 -3.2752989141793537e-18 -1.5662986769158162e-13 3.4906625063254246 6.919292829977859e-18 -3.275298914179353e-18 6.919292829977859e-18 3.4906625063254904" Properties=species:S:1:pos:R:3 energy=-3002.06090955 pbc="T T T" n_minim_iter=0
Ti      -0.00000000       0.00000000       0.00000000 
Ti       1.74533125       1.74533125       1.74533125 
