2
Lattice="3.2231151133367386 -1.446247217660996e-13 -3.024258407066614e-18 -1.446247217660996e-13 3.2231151133367386 6.388952599539867e-18 -3.0242584070666133e-18 6.388952599539867e-18 3.2231151133367995" Properties=species:S:1:pos:R:3 energy=-3187.1025817 pbc="T T T" n_minim_iter=0
Ti      -0.00000000       0.00000000       0.00000000 
Ti       1.61155756       1.61155756       1.61155756 
