2
Lattice="3.1335373882395787 -1.4060527067202894e-13 -2.9402073636862447e-18 -1.4060527067202894e-13 3.1335373882395787 6.211389025327996e-18 -2.940207363686244e-18 6.211389025327996e-18 3.1335373882396373" Properties=species:S:1:pos:R:3 energy=-3187.12224861 pbc="T T T" n_minim_iter=0
Ti      -0.00000000       0.00000000       0.00000000 
Ti       1.56676869       1.56676869       1.56676869 
