2
Lattice="3.539489284745141 -1.588207789669707e-13 -3.3211132242282852e-18 -1.588207789669707e-13 3.539489284745141 7.016078691463536e-18 -3.3211132242282845e-18 7.016078691463536e-18 3.5394892847452075" Properties=species:S:1:pos:R:3 energy=-2723.63314223 pbc="T T T" n_minim_iter=0
Ti      -0.00000000       0.00000000       0.00000000 
Ti       1.76974464       1.76974464       1.76974464 
