2
Lattice="3.3353124720840874 -1.496591407121012e-13 -3.1295335193448912e-18 -1.496591407121012e-13 3.3353124720840874 6.611353470009643e-18 -3.1295335193448905e-18 6.611353470009643e-18 3.33531247208415" Properties=species:S:1:pos:R:3 energy=-3186.97884845 pbc="T T T" n_minim_iter=0
Ti      -0.00000000       0.00000000       0.00000000 
Ti       1.66765624       1.66765624       1.66765624 
