2
Lattice="3.5634054783631006 -1.5989392489135589e-13 -3.3435538591639918e-18 -1.5989392489135589e-13 3.5634054783631006 7.063486066631213e-18 -3.343553859163991e-18 7.063486066631213e-18 3.5634054783631677" Properties=species:S:1:pos:R:3 energy=-2508.15956014 pbc="T T T" n_minim_iter=0
Ti      -0.00000000       0.00000000       0.00000000 
Ti       1.78170274       1.78170274       1.78170274 
