2
Lattice="3.280173212086836 -1.471849814422402e-13 -3.0777961892333752e-18 -1.471849814422402e-13 3.280173212086836 6.502054823790506e-18 -3.0777961892333744e-18 6.502054823790506e-18 3.280173212086898" Properties=species:S:1:pos:R:3 energy=-3187.28244207 pbc="T T T" n_minim_iter=0
Ti      -0.00000000       0.00000000       0.00000000 
Ti       1.64008661       1.64008661       1.64008661 
