2
Lattice="3.307972615600954 -1.4843237126764754e-13 -3.1038804514556985e-18 -1.4843237126764754e-13 3.307972615600954 6.557159610650977e-18 -3.1038804514556978e-18 6.557159610650977e-18 3.3079726156010163" Properties=species:S:1:pos:R:3 energy=-3187.42815398 pbc="T T T" n_minim_iter=0
Ti      -0.00000000       0.00000000       0.00000000 
Ti       1.65398631       1.65398631       1.65398631 
