2
Lattice="3.4657283515430093 -1.5551104472960978e-13 -3.2519031232838325e-18 -1.5551104472960978e-13 3.4657283515430093 6.869867622558096e-18 -3.2519031232838318e-18 6.869867622558096e-18 3.4657283515430746" Properties=species:S:1:pos:R:3 energy=-3081.26803323 pbc="T T T" n_minim_iter=0
Ti      -0.00000000       0.00000000       0.00000000 
Ti       1.73286418       1.73286418       1.73286418 
