2
Lattice="3.1639619840701037 -1.419704557653657e-13 -2.968754851593623e-18 -1.419704557653657e-13 3.1639619840701037 6.271697544814956e-18 -2.9687548515936224e-18 6.271697544814956e-18 3.163961984070163" Properties=species:S:1:pos:R:3 energy=-3187.13004855 pbc="T T T" n_minim_iter=0
Ti      -0.00000000       0.00000000       0.00000000 
Ti       1.58198099       1.58198099       1.58198099 
