64
Lattice="11.50169574 0.0 0.0 -5.750847869999998 9.96076069743926 0.0 0.0 0.0 9.3105641" Properties=species:S:1:pos:R:3:force:R:3 virial="-51.046724436304295 0.0053527385890579605 -0.00017309851158645145 0.0053527385890579605 -51.05109184490432 -0.02463990736082526 -0.00017309851158645145 -0.02463990736082526 -50.086487073818695" energy=-78269.3091635 pbc="T T T"
Ti       2.88319333       3.28996953       1.17011445      -0.05469031       0.01341953      -0.04599938 
Ti       8.62627756       3.28996953       1.16382051      -0.00034031       0.01502953       0.00276063 
Ti      -0.00000575       8.27034988       1.16382051      -0.00101031       0.00547953       0.00068063 
Ti       5.75084212       8.27034988       1.16382051       0.00200969       0.00832953      -0.00103937 
Ti       2.87542969       3.28996953       5.81910256      -0.00370031       0.01132953       0.01269063 
Ti       8.62627756       3.28996953       5.81910256       0.00203969       0.01416953      -0.00044937 
Ti      -0.00000575       8.27034988       5.81910256      -0.00200031       0.00888953       0.00009063 
Ti       5.75084212       8.27034988       5.81910256       0.00213969       0.00973953       0.00175063 
Ti      -1.41147660       4.13516996       3.49146154      -0.01250031       0.00152953       0.00017063 
Ti       4.33937127       4.13516996       3.49146154       0.00063969       0.00770953       0.00765062 
Ti      -4.28691204       9.11555031       3.49146154      -0.00995031       0.00814953      -0.00036937 
Ti       1.46393583       9.11555031       3.49146154      -0.00867031       0.00776953       0.00209063 
Ti      -1.41147660       4.13516996       8.14674359      -0.00784031       0.00288953      -0.00012937 
Ti       4.33937127       4.13516996       8.14674359      -0.00867031       0.00388953      -0.00074937 
Ti      -4.28691204       9.11555031       8.14674359      -0.01009031       0.01011953       0.00046063 
Ti       1.46393583       9.11555031       8.14674359      -0.00758031       0.00753953      -0.00290937 
Ti       1.41148810       4.13516996       3.49146154       0.00457969       0.00091953      -0.00080937 
Ti       7.16233597       4.13516996       3.49146154       0.01649969       0.00578953       0.00185063 
Ti      -1.46393583       9.11555031       3.49146154       0.00676969       0.00252953       0.00442063 
Ti       4.28691204       9.11555031       3.49146154       0.01227969       0.01137953       0.00061063 
Ti       1.41148810       4.13516996       8.14674359       0.01413969      -0.00211047       0.00740063 
Ti       7.16233597       4.13516996       8.14674359       0.01188969       0.00690953      -0.00180938 
Ti      -1.46393583       9.11555031       8.14674359       0.00470969       0.00462953      -0.00443938 
Ti       4.28691204       9.11555031       8.14674359       0.01320969       0.01068953      -0.00148938 
Ti       1.46394158       0.84520043       1.16382051      -0.00997031       0.00287953       0.00409062 
Ti       7.21478945       0.84520043       1.16382051      -0.00232031       0.00048953      -0.00044937 
Ti      -1.41148810       5.82559074       1.16382051      -0.01251031      -0.01367047       0.00039063 
Ti       4.33935977       5.82559074       1.16382051      -0.00202031      -0.01194047       0.00019063 
Ti       1.46394158       0.84520043       5.81910256      -0.01436031      -0.00168047      -0.00040937 
Ti       7.21478945       0.84520043       5.81910256      -0.00595031       0.00096953       0.00047063 
Ti      -1.41148810       5.82559074       5.81910256      -0.01308031      -0.01310047      -0.00036937 
Ti       4.33935977       5.82559074       5.81910256      -0.00440031      -0.00937047       0.00032063 
Ti       4.28690629       0.84520043       1.16382051       0.01048969      -0.00412047       0.00460062 
Ti      10.03775416       0.84520043       1.16382051       0.01455969       0.00262953      -0.00015937 
Ti       1.41147660       5.82559074       1.16382051       0.01125969      -0.01014047       0.00003063 
Ti       7.16232447       5.82559074       1.16382051       0.01174969      -0.00869047       0.00057063 
Ti       4.28690629       0.84520043       5.81910256       0.00877969      -0.00219047      -0.00078937 
Ti      10.03775416       0.84520043       5.81910256       0.01304969       0.00216953       0.00017063 
Ti       1.41147660       5.82559074       5.81910256       0.00790969      -0.01105047       0.00063063 
Ti       7.16232447       5.82559074       5.81910256       0.01271969      -0.00982047      -0.00049937 
Ti       0.00000575       1.69041082       3.49146154      -0.00314031      -0.00834047       0.00144063 
Ti       5.75085362       1.69041082       3.49146154      -0.00041031      -0.00291047       0.00131062 
Ti      -2.87542969       6.67079116       3.49146154      -0.00139031      -0.01760047       0.00059063 
Ti       2.87541818       6.67079116       3.49146154       0.00100969      -0.01570047      -0.00049937 
Ti       0.00000575       1.69041082       8.14674359      -0.00426031      -0.00861047      -0.00340937 
Ti       5.75085362       1.69041082       8.14674359       0.00158969      -0.00233047      -0.00307937 
Ti      -2.87542969       6.67079116       8.14674359      -0.00226031      -0.01720047      -0.00020937 
Ti       2.87541818       6.67079116       8.14674359       0.00122969      -0.01591047      -0.00080937 
Al      -0.00000575       3.32025025       1.16382051       0.00902969      -0.00251047       0.00108062 
Al       5.75084212       3.32025025       1.16382051       0.01023969       0.00315953       0.00108062 
Al      -2.87543544       8.30064056       1.16382051      -0.00223031      -0.00100047       0.00050063 
Al       2.87541243       8.30064056       1.16382051       0.00127969      -0.00016047      -0.00040937 
Al      -0.00000575       3.32025025       5.81910256      -0.00011031      -0.00032047       0.00054063 
Al       5.75084212       3.32025025       5.81910256       0.00096969       0.00022953       0.00053063 
Al      -2.87543544       8.30064056       5.81910256      -0.00073031      -0.00036047      -0.00009937 
Al       2.87541243       8.30064056       5.81910256       0.00075969       0.00042953      -0.00010937 
Al       2.87543544       1.66012014       3.49146154      -0.00178031      -0.00387047       0.00629062 
Al       8.62628331       1.66012014       3.49146154       0.00034969       0.00092953       0.00050063 
Al       0.00000000       6.64050049       3.49146154      -0.00070031      -0.00102047       0.00058063 
Al       5.75084787       6.64050049       3.49146154       0.00130969      -0.00057047      -0.00006937 
Al       2.87543544       1.66012014       8.14674359      -0.00169031       0.00572953       0.00451062 
Al       8.62628331       1.66012014       8.14674359       0.00042969       0.00069953      -0.00097937 
Al       0.00000000       6.64050049       8.14674359       0.00012969      -0.00193047      -0.00057937 
Al       5.75084787       6.64050049       8.14674359       0.00060969      -0.00091047       0.00007063 
