64
Lattice="11.221007406739036 0.0003581763943235956 -2.5131323619446874e-07 -5.610193513512995 9.717846055813132 -9.1990921583057e-08 -2.0343678424995805e-07 -2.0344042297106932e-07 9.089697596676826" Properties=species:S:1:pos:R:3:force:R:3 virial="4.0509689003643246 -0.009360258438812377 -0.0002474622191358197 -0.009360258438812377 4.032743307924971 -0.02970165285177675 -0.0002474622191358197 -0.02970165285177675 8.207251534637376" energy=-78270.9734784 pbc="T T T"
Ti       2.81289482       3.21069203       1.14252031      -0.06316031      -0.01099937      -0.05468109 
Ti       8.41563359       3.21087087       1.13623012       0.00199969      -0.00987937       0.00126891 
Ti       0.00003313       8.06961481       1.13623020       0.00265969      -0.00969937      -0.00076109 
Ti       5.61053683       8.06979390       1.13623007       0.00269969      -0.00773938       0.00003891 
Ti       2.80512978       3.21069168       5.68106995      -0.00112031      -0.01042937       0.01192891 
Ti       8.41563349       3.21087077       5.68106983       0.00384969      -0.01068937       0.00170891 
Ti       0.00003303       8.06961471       5.68106991       0.00353969      -0.00966937       0.00176891 
Ti       5.61053673       8.06979380       5.68106978       0.00260969      -0.00771938       0.00093891 
Ti      -1.37760341       4.03475365       3.40864563       0.01119969      -0.00911937      -0.00178109 
Ti       4.23290029       4.03493274       3.40864550       0.01616969       0.00387063       0.01196891 
Ti      -4.18270017       8.89367668       3.40864558       0.00260969      -0.00502937      -0.00151109 
Ti       1.42780354       8.89385577       3.40864546       0.01367969      -0.00815937      -0.00039109 
Ti      -1.37760351       4.03475355       7.95349443       0.01256969      -0.00691938       0.00185891 
Ti       4.23290019       4.03493264       7.95349430       0.00648969      -0.00168937      -0.00178109 
Ti      -4.18270027       8.89367658       7.95349438       0.00360969      -0.00342937       0.00142891 
Ti       1.42780343       8.89385567       7.95349426       0.01317969      -0.00702938      -0.00064109 
Ti       1.37796181       4.03460838       3.40864557      -0.00909031      -0.00203937      -0.00014109 
Ti       6.98847674       4.03478747       3.40864544      -0.00739031       0.00171063       0.00156891 
Ti      -1.42712372       8.89353141       3.40864552      -0.01276031      -0.00262937       0.00172891 
Ti       4.18337998       8.89371049       3.40864540      -0.00444031      -0.00298937      -0.00035109 
Ti       1.37796171       4.03460828       7.95349437       0.00052969      -0.00834937       0.00971891 
Ti       6.98847664       4.03478736       7.95349424      -0.00984031       0.00409062      -0.00162109 
Ti      -1.42712382       8.89353130       7.95349432      -0.01365031      -0.00135937      -0.00173109 
Ti       4.18337988       8.89371039       7.95349419      -0.00460031      -0.00223937      -0.00082109 
Ti       1.42742820       0.82450335       1.13623033       0.01313969       0.00296063       0.00483891 
Ti       7.03793190       0.82468244       1.13623020       0.01519969      -0.00039937      -0.00118109 
Ti      -1.37766856       5.68342638       1.13623028       0.00852969       0.00029063      -0.00138109 
Ti       4.23283515       5.68360547       1.13623016       0.01717969       0.00579062       0.00091891 
Ti       1.42743371       0.82449354       5.68107913       0.00708969      -0.00122937      -0.00073109 
Ti       7.03793741       0.82467262       5.68106991       0.01453969       0.00035063       0.00131891 
Ti      -1.37766305       5.68341656       5.68107908       0.00963969       0.00121063       0.00159891 
Ti       4.23283505       5.68360537       5.68106987       0.01318969       0.00612062      -0.00091109 
Ti       4.18302148       0.82436780       1.13623027      -0.00825031      -0.00044937       0.00478891 
Ti       9.79352518       0.82454689       1.13623014      -0.00332031       0.00137063      -0.00072109 
Ti       1.37792472       5.68329083       1.13623022      -0.00202031       0.00608063       0.00150891 
Ti       6.98842842       5.68346992       1.13623010      -0.01185031       0.01159063      -0.00131109 
Ti       4.18302138       0.82436770       5.68107907      -0.01480031       0.00483062      -0.00059109 
Ti       9.79352508       0.82454679       5.68106985      -0.00356031       0.00078063       0.00091891 
Ti       1.37792462       5.68329073       5.68106993      -0.00305031       0.00433062      -0.00145109 
Ti       6.98842832       5.68346981       5.68106980      -0.01276031       0.01041063       0.00147891 
Ti       0.00029379       1.64845882       3.40864565      -0.00260031       0.00295063       0.00126891 
Ti       5.61080872       1.64863791       3.40864553      -0.00852031       0.01154063      -0.00273109 
Ti      -2.80479174       6.50738185       3.40864561      -0.00896031       0.01181062      -0.00010109 
Ti       2.80571196       6.50756094       3.40864548      -0.00000031       0.00967063       0.00018891 
Ti       0.00029369       1.64845872       7.95349445      -0.00625031       0.00262063      -0.00366109 
Ti       5.61080862       1.64863781       7.95349432      -0.00508031       0.01118063       0.00022891 
Ti      -2.80479184       6.50738175       7.95349440      -0.00881031       0.01004063       0.00052891 
Ti       2.80571186       6.50756083       7.95349428       0.00042969       0.01147062      -0.00178109 
Al       0.00042316       3.23916354       1.13623031       0.00938969      -0.00102937       0.00089891 
Al       5.61092687       3.23934262       1.13623018       0.00941969       0.00668062       0.00078891 
Al      -2.80467359       8.09808656       1.13623026      -0.00654031       0.00282063       0.00014891 
Al       2.80582450       8.09827537       1.13623013      -0.00276031       0.00257062      -0.00056109 
Al       0.00042306       3.23916343       5.68107910      -0.00299031       0.00136063       0.00064891 
Al       5.61092677       3.23934252       5.68106989      -0.00390031       0.00433062       0.00072891 
Al      -2.80467369       8.09808646       5.68107906      -0.00497031       0.00294063       0.00036891 
Al       2.80583001       8.09826555       5.68106984      -0.00289031       0.00242063       0.00003891 
Al       2.80497246       1.61995791       3.40864559       0.00232969      -0.00900938       0.00757891 
Al       8.41547616       1.62013700       3.40864546       0.00554969      -0.00277937      -0.00018109 
Al      -0.00012430       6.47888094       3.40864554       0.00532969      -0.00270937       0.00003891 
Al       5.61037941       6.47906003       3.40864542       0.00413969      -0.00078937      -0.00002109 
Al       2.80497236       1.61995781       7.95349439       0.00247969       0.00376063       0.00717891 
Al       8.41546484       1.62013690       7.95349426       0.00561969      -0.00284937      -0.00031109 
Al      -0.00012440       6.47888084       7.95349434       0.00525969      -0.00319937      -0.00006109 
Al       5.61037931       6.47905993       7.95349422       0.00408969      -0.00170937      -0.00003109 
