64
Lattice="11.221007406739036 0.0003581763943235956 -2.5131323619446874e-07 -5.610193513512995 9.717846055813132 -9.1990921583057e-08 -2.0343678424995805e-07 -2.0344042297106932e-07 9.089697596676826" Properties=species:S:1:pos:R:3:force:R:3 virial="4.048055032734 -0.026942449108412366 0.0001299176650463053 -0.026942449108412366 3.9997132882258177 -0.02996767473734776 0.0001299176650463053 -0.02996767473734776 8.243133556412069" energy=-78271.0063255 pbc="T T T"
Ti       2.81289482       3.21069203       1.14252031      -0.06039969      -0.00806984      -0.05430031 
Ti       8.41563359       3.21087087       1.13623012      -0.00082969      -0.01067984       0.00331969 
Ti       0.00003313       8.06961481       1.13623020       0.00490031      -0.00795984       0.00114969 
Ti       5.61053683       8.06979390       1.13623007       0.00056031      -0.01095984       0.00108969 
Ti       2.80512978       3.21069168       5.68106995       0.00232031      -0.00711984       0.01152969 
Ti       8.41563349       3.21087077       5.68106983       0.00132031      -0.01046984      -0.00036031 
Ti       0.00003303       8.06961471       5.68106991       0.00523031      -0.00831984      -0.00020031 
Ti       5.61053673       8.06979380       5.68106978       0.00030031      -0.01141984      -0.00011031 
Ti      -1.37760341       4.03475365       3.40864563       0.00748031      -0.00621984      -0.00117031 
Ti       4.23290029       4.03493274       3.40864550       0.01946031      -0.00294984       0.01212969 
Ti      -4.18270017       8.89367668       3.40864558       0.00984031      -0.00429984      -0.00146031 
Ti       1.42780354       8.89385577       3.40864546       0.00599031      -0.00268984       0.00012969 
Ti      -1.37760351       4.03475355       7.95349443       0.01177031      -0.00495984       0.00112969 
Ti       4.23290019       4.03493264       7.95349430       0.00772031      -0.00754984      -0.00201031 
Ti      -4.18270027       8.89367658       7.95349438       0.01103031      -0.00229984       0.00142969 
Ti       1.42780343       8.89385567       7.95349426       0.00697031      -0.00383984      -0.00116031 
Ti       1.37796181       4.03460838       3.40864557      -0.00790969       0.00058016      -0.00044031 
Ti       6.98847674       4.03478747       3.40864544      -0.00902969      -0.00477984       0.00201969 
Ti      -1.42712372       8.89353141       3.40864552      -0.00386969      -0.00017984       0.00218969 
Ti       4.18337998       8.89371049       3.40864540      -0.01387969       0.00090016       0.00001969 
Ti       1.37796171       4.03460828       7.95349437       0.00198031      -0.00465984       0.01004969 
Ti       6.98847664       4.03478736       7.95349424      -0.01199969      -0.00241984      -0.00197031 
Ti      -1.42712382       8.89353130       7.95349432      -0.00566969       0.00119016      -0.00218031 
Ti       4.18337988       8.89371039       7.95349419      -0.01394969       0.00068016      -0.00107031 
Ti       1.42742820       0.82450335       1.13623033       0.01707031       0.01104016       0.00554969 
Ti       7.03793190       0.82468244       1.13623020       0.00907031       0.00080016       0.00130969 
Ti      -1.37766856       5.68342638       1.13623028       0.01277031       0.00024016       0.00040969 
Ti       4.23283515       5.68360547       1.13623016       0.01263031      -0.00315984       0.00134969 
Ti       1.42743371       0.82449354       5.68107913       0.01095031       0.00639016      -0.00129031 
Ti       7.03793741       0.82467262       5.68106991       0.00830031       0.00089016      -0.00118031 
Ti      -1.37766305       5.68341656       5.68107908       0.01314031       0.00161016      -0.00028031 
Ti       4.23283505       5.68360537       5.68106987       0.00934031      -0.00257984      -0.00132031 
Ti       4.18302148       0.82436780       1.13623027       0.00134031       0.00149016       0.00637969 
Ti       9.79352518       0.82454689       1.13623014      -0.00991969       0.00723016       0.00041969 
Ti       1.37792472       5.68329083       1.13623022      -0.00422969       0.00555016       0.00078969 
Ti       6.98842842       5.68346992       1.13623010      -0.00830969       0.00203016       0.00060969 
Ti       4.18302138       0.82436770       5.68107907      -0.00468969       0.00648016      -0.00216031 
Ti       9.79352508       0.82454679       5.68106985      -0.01064969       0.00636016      -0.00037031 
Ti       1.37792462       5.68329073       5.68106993      -0.00697969       0.00508016      -0.00069031 
Ti       6.98842832       5.68346981       5.68106980      -0.00873969       0.00142016      -0.00047031 
Ti       0.00029379       1.64845882       3.40864565      -0.00617969       0.00925016       0.00076969 
Ti       5.61080872       1.64863791       3.40864553      -0.00601969       0.01068016      -0.00278031 
Ti      -2.80479174       6.50738185       3.40864561      -0.00326969       0.00678016       0.00088969 
Ti       2.80571196       6.50756094       3.40864548      -0.00590969       0.00741016       0.00007969 
Ti       0.00029369       1.64845872       7.95349445      -0.00878969       0.00937016      -0.00320031 
Ti       5.61080862       1.64863781       7.95349432      -0.00319969       0.01096016       0.00037969 
Ti      -2.80479184       6.50738175       7.95349440      -0.00324969       0.00597016      -0.00037031 
Ti       2.80571186       6.50756083       7.95349428      -0.00605969       0.00767016      -0.00169031 
Al       0.00042316       3.23916354       1.13623031       0.00957031       0.00036016       0.00101969 
Al       5.61092687       3.23934262       1.13623018       0.00962031       0.00435016       0.00135969 
Al      -2.80467359       8.09808656       1.13623026      -0.00396969       0.00250016       0.00084969 
Al       2.80582450       8.09827537       1.13623013      -0.00506969       0.00302016      -0.00025031 
Al       0.00042306       3.23916343       5.68107910      -0.00315969       0.00283016       0.00050969 
Al       5.61092677       3.23934252       5.68106989      -0.00367969       0.00225016       0.00016969 
Al      -2.80467369       8.09808646       5.68107906      -0.00239969       0.00230016      -0.00034031 
Al       2.80583001       8.09826555       5.68106984      -0.00528969       0.00292016      -0.00034031 
Al       2.80497246       1.61995791       3.40864559       0.00496031      -0.00787984       0.00754969 
Al       8.41547616       1.62013700       3.40864546       0.00344031      -0.00263984      -0.00021031 
Al      -0.00012430       6.47888094       3.40864554       0.00522031      -0.00179984       0.00032969 
Al       5.61037941       6.47906003       3.40864542       0.00469031      -0.00367984       0.00018969 
Al       2.80497236       1.61995781       7.95349439       0.00475031       0.00518016       0.00718969 
Al       8.41546484       1.62013690       7.95349426       0.00357031      -0.00279984      -0.00031031 
Al      -0.00012440       6.47888084       7.95349434       0.00603031      -0.00291984      -0.00037031 
Al       5.61037931       6.47905993       7.95349422       0.00396031      -0.00445984      -0.00023031 
