64
Lattice="11.221007406739036 0.0003581763943235956 -2.5131323619446874e-07 -5.610193513512995 9.717846055813132 -9.1990921583057e-08 -2.0343678424995805e-07 -2.0344042297106932e-07 9.089697596676826" Properties=species:S:1:pos:R:3:force:R:3 virial="4.028555009866097 -0.020557923854708216 -0.00022271599722223766 -0.020557923854708216 4.00841777178392 0.0003340739958333565 -0.00022271599722223766 0.0003340739958333565 8.216556114076882" energy=-78270.9734883 pbc="T T T"
Ti       2.80512989       3.21069179       1.13623024       0.00005984       0.00077078       0.00988000 
Ti       8.41563359       3.21087087       1.13623012       0.00100984      -0.00469922      -0.00167000 
Ti       0.00003313       8.06961481       1.13623020       0.00524984      -0.01216922       0.00058000 
Ti       5.61053683       8.06979390       1.13623007       0.00160984      -0.01584922       0.00098000 
Ti       2.80512978       3.21069168       5.68106995      -0.00101016       0.00111078      -0.00978000 
Ti       8.41563349       3.21087077       5.68106983       0.00175984      -0.00466922       0.00161000 
Ti       0.00003303       8.06961471       5.68106991       0.00526984      -0.01328922      -0.00051000 
Ti       5.61053673       8.06979380       5.68106978       0.00167984      -0.01451922      -0.00096000 
Ti      -1.37760341       4.03475365       3.40864563      -0.00227016       0.00147078       0.00085000 
Ti       4.23290029       4.03493274       3.40864550       0.00781984       0.00355078       0.00001000 
Ti      -4.18270017       8.89367668       3.40864558       0.01003984      -0.00579922       0.00047000 
Ti       1.42780354       8.89385577       3.40864546       0.00837984      -0.00523922       0.00073000 
Ti      -1.37760351       4.03475355       7.95349443       0.00690984      -0.00249922      -0.00074000 
Ti       4.23290019       4.03493264       7.95349430       0.00921984       0.00004078      -0.00006000 
Ti      -4.18270027       8.89367658       7.95349438       0.00930984      -0.00750922      -0.00057000 
Ti       1.42780343       8.89385567       7.95349426       0.01024984      -0.00709922      -0.00067000 
Ti       1.37297435       4.04326698       3.40864557       0.03419984      -0.06959922       0.00107000 
Ti       6.98847674       4.03478747       3.40864544      -0.01100016      -0.00071922      -0.00008000 
Ti      -1.42712372       8.89353141       3.40864552      -0.00496016      -0.00557922       0.00038000 
Ti       4.18337998       8.89371049       3.40864540      -0.01262016      -0.00523922       0.00069000 
Ti       1.37796171       4.03460828       7.95349437      -0.00781016       0.00098078      -0.00102000 
Ti       6.98847664       4.03478736       7.95349424      -0.00893016      -0.00049922       0.00006000 
Ti      -1.42712382       8.89353130       7.95349432      -0.00861016      -0.00371922      -0.00041000 
Ti       4.18337988       8.89371039       7.95349419      -0.01289016      -0.00559922      -0.00071000 
Ti       1.42742820       0.82450335       1.13623033       0.01186984       0.00082078      -0.00042000 
Ti       7.03793190       0.82468244       1.13623020       0.00928984       0.00188078       0.00215000 
Ti      -1.37766856       5.68342638       1.13623028       0.01437984      -0.00120922       0.00351000 
Ti       4.23283515       5.68360547       1.13623016       0.00839984      -0.00081922       0.00160000 
Ti       1.42743371       0.82449354       5.68107913       0.01075984       0.00086078       0.00048000 
Ti       7.03793741       0.82467262       5.68106991       0.00946984       0.00118078      -0.00228000 
Ti      -1.37766305       5.68341656       5.68107908       0.01491984      -0.00092922      -0.00353000 
Ti       4.23283505       5.68360537       5.68106987       0.00780984      -0.00098922      -0.00174000 
Ti       4.18302148       0.82436780       1.13623027      -0.00830016       0.00858078       0.00442000 
Ti       9.79352518       0.82454689       1.13623014      -0.01157016       0.00697078       0.00354000 
Ti       1.37792472       5.68329083       1.13623022      -0.00827016       0.01143078      -0.00714000 
Ti       6.98842842       5.68346992       1.13623010      -0.01030016       0.00104078       0.00141000 
Ti       4.18302138       0.82436770       5.68107907      -0.00844016       0.00870078      -0.00443000 
Ti       9.79352508       0.82454679       5.68106985      -0.01080016       0.00642078      -0.00353000 
Ti       1.37792462       5.68329073       5.68106993      -0.00942016       0.01111078       0.00725000 
Ti       6.98842832       5.68346981       5.68106980      -0.00913016       0.00137078      -0.00141000 
Ti       0.00029379       1.64845882       3.40864565      -0.00217016       0.02312078       0.00080000 
Ti       5.61080872       1.64863791       3.40864553      -0.00489016       0.01290078       0.00021000 
Ti      -2.80479174       6.50738185       3.40864561      -0.00471016       0.00507078       0.00076000 
Ti       2.80571196       6.50756094       3.40864548      -0.00839016       0.00899078       0.00020000 
Ti       0.00029369       1.64845872       7.95349445      -0.00437016       0.01470078      -0.00082000 
Ti       5.61080862       1.64863781       7.95349432      -0.00309016       0.01466078      -0.00030000 
Ti      -2.80479184       6.50738175       7.95349440      -0.00418016       0.00362078      -0.00068000 
Ti       2.80571186       6.50756083       7.95349428      -0.00601016       0.00669078      -0.00025000 
Al       0.00042316       3.23916354       1.13623031      -0.00374016       0.00341078       0.00032000 
Al       5.61092687       3.23934262       1.13623018      -0.00451016       0.00390078       0.00053000 
Al      -2.80467359       8.09808656       1.13623026      -0.00346016       0.00100078       0.00094000 
Al       2.80582450       8.09827537       1.13623013      -0.00474016       0.00162078       0.00038000 
Al       0.00042306       3.23916343       5.68107910      -0.00373016       0.00332078      -0.00038000 
Al       5.61092677       3.23934252       5.68106989      -0.00447016       0.00385078      -0.00055000 
Al      -2.80467369       8.09808646       5.68107906      -0.00350016       0.00097078      -0.00091000 
Al       2.80583001       8.09826555       5.68106984      -0.00483016       0.00172078      -0.00038000 
Al       2.80497246       1.61995791       3.40864559      -0.00589016       0.01201078       0.00018000 
Al       8.41547616       1.62013700       3.40864546       0.00427984      -0.00320922       0.00022000 
Al      -0.00012430       6.47888094       3.40864554      -0.00141016       0.01377078       0.00026000 
Al       5.61037941       6.47906003       3.40864542       0.00380984      -0.00342922       0.00008000 
Al       2.80497236       1.61995781       7.95349439       0.00441984      -0.00047922      -0.00016000 
Al       8.41546484       1.62013690       7.95349426       0.00358984      -0.00133922      -0.00019000 
Al      -0.00012440       6.47888084       7.95349434       0.00480984      -0.00327922      -0.00021000 
Al       5.61037931       6.47905993       7.95349422       0.00384984      -0.00364922      -0.00006000 
