64
Lattice="11.221007406739036 0.0003581763943235956 -2.5131323619446874e-07 -5.610193513512995 9.717846055813132 -9.1990921583057e-08 -2.0343678424995805e-07 -2.0344042297106932e-07 9.089697596676826" Properties=species:S:1:pos:R:3:force:R:3 virial="4.059147526706764 -0.039989894612348455 -0.0004392454389660799 -0.039989894612348455 3.9998493924463423 0.0004639916608796618 -0.0004392454389660799 0.0004639916608796618 8.229881954577344" energy=-78270.9734295 pbc="T T T"
Ti       2.80512989       3.21069179       1.13623024       0.00666000      -0.00925031      -0.00618953 
Ti       8.41563359       3.21087087       1.13623012       0.00541000      -0.00985031       0.00255047 
Ti       0.00003313       8.06961481       1.13623020       0.00864000      -0.01341031       0.00163047 
Ti       5.61053683       8.06979390       1.13623007      -0.00081000      -0.01036031       0.00209047 
Ti       2.80512978       3.21069168       5.68106995       0.00593000      -0.01055031       0.00580047 
Ti       8.41563349       3.21087077       5.68106983       0.00717000      -0.01231031      -0.00249953 
Ti       0.00003303       8.06961471       5.68106991       0.00784000      -0.01365031      -0.00172953 
Ti       5.61053673       8.06979380       5.68106978      -0.00149000      -0.00653031      -0.00215953 
Ti      -1.37760341       4.03475365       3.40864563       0.02117000      -0.00871031      -0.00075953 
Ti       4.23290029       4.03493274       3.40864550       0.00573000      -0.01097031      -0.00087953 
Ti      -4.18270017       8.89367668       3.40864558       0.00614000      -0.00502031       0.00190047 
Ti       1.42780354       8.89385577       3.40864546       0.00945000      -0.00814031      -0.00168953 
Ti      -1.37760351       4.03475355       7.95349443       0.01297000      -0.00700031       0.00067047 
Ti       4.23290019       4.03493264       7.95349430       0.00494000      -0.00649031       0.00107047 
Ti      -4.18270027       8.89367658       7.95349438       0.00699000      -0.00323031      -0.00182953 
Ti       1.42780343       8.89385567       7.95349426       0.01000000      -0.00796031       0.00150047 
Ti       1.38297172       4.02594978       3.40864557      -0.04906000       0.07355969      -0.00118953 
Ti       6.98847674       4.03478747       3.40864544      -0.01274000      -0.00474031      -0.00153953 
Ti      -1.42712372       8.89353141       3.40864552      -0.00912000       0.00209969      -0.00064953 
Ti       4.18337998       8.89371049       3.40864540      -0.01141000      -0.00117031       0.00183047 
Ti       1.37796171       4.03460828       7.95349437      -0.01092000       0.00293969       0.00116047 
Ti       6.98847664       4.03478736       7.95349424      -0.01062000      -0.00434031       0.00168047 
Ti      -1.42712382       8.89353130       7.95349432      -0.00595000      -0.00187031       0.00055047 
Ti       4.18337988       8.89371039       7.95349419      -0.01383000       0.00049969      -0.00176953 
Ti       1.42742820       0.82450335       1.13623033       0.01081000       0.01014969       0.00271047 
Ti       7.03793190       0.82468244       1.13623020       0.00956000       0.00063969       0.00018047 
Ti      -1.37766856       5.68342638       1.13623028       0.01222000       0.00120969      -0.00143953 
Ti       4.23283515       5.68360547       1.13623016       0.00414000       0.00034969       0.00215047 
Ti       1.42743371       0.82449354       5.68107913       0.00734000       0.00846969      -0.00266953 
Ti       7.03793741       0.82467262       5.68106991       0.01188000       0.00151969      -0.00005953 
Ti      -1.37766305       5.68341656       5.68107908       0.01235000       0.00114969       0.00146047 
Ti       4.23283505       5.68360537       5.68106987       0.00395000       0.00206969      -0.00205953 
Ti       4.18302148       0.82436780       1.13623027      -0.00627000       0.00732969       0.00011047 
Ti       9.79352518       0.82454689       1.13623014      -0.01085000       0.00522969      -0.00303953 
Ti       1.37792472       5.68329083       1.13623022      -0.00575000      -0.00346031       0.00806047 
Ti       6.98842842       5.68346992       1.13623010      -0.00932000       0.00341969       0.00033047 
Ti       4.18302138       0.82436770       5.68107907      -0.00857000       0.00700969      -0.00003953 
Ti       9.79352508       0.82454679       5.68106985      -0.00652000       0.00380969       0.00293047 
Ti       1.37792462       5.68329073       5.68106993      -0.00537000      -0.00314031      -0.00803953 
Ti       6.98842832       5.68346981       5.68106980      -0.01156000       0.00528969      -0.00044953 
Ti       0.00029379       1.64845882       3.40864565      -0.00592000      -0.00015031       0.00279047 
Ti       5.61080872       1.64863791       3.40864553      -0.00240000       0.00982969      -0.00082953 
Ti      -2.80479174       6.50738185       3.40864561       0.00081000       0.00921969      -0.00140953 
Ti       2.80571196       6.50756094       3.40864548      -0.00113000       0.00243969      -0.00025953 
Ti       0.00029369       1.64845872       7.95349445      -0.00502000       0.00993969      -0.00256953 
Ti       5.61080862       1.64863781       7.95349432      -0.00125000       0.00817969       0.00088047 
Ti      -2.80479184       6.50738175       7.95349440      -0.00023000       0.00858969       0.00136047 
Ti       2.80571186       6.50756083       7.95349428      -0.00573000       0.00749969       0.00031047 
Al       0.00042316       3.23916354       1.13623031      -0.00447000       0.00383969      -0.00009953 
Al       5.61092687       3.23934262       1.13623018      -0.00427000       0.00205969       0.00044047 
Al      -2.80467359       8.09808656       1.13623026      -0.00350000       0.00244969       0.00041047 
Al       2.80582450       8.09827537       1.13623013      -0.00467000       0.00190969      -0.00008953 
Al       0.00042306       3.23916343       5.68107910      -0.00426000       0.00324969       0.00019047 
Al       5.61092677       3.23934252       5.68106989      -0.00431000       0.00177969      -0.00045953 
Al      -2.80467369       8.09808646       5.68107906      -0.00398000       0.00337969      -0.00046953 
Al       2.80583001       8.09826555       5.68106984      -0.00393000       0.00199969       0.00012047 
Al       2.80497246       1.61995791       3.40864559       0.01611000      -0.01604031       0.00062047 
Al       8.41547616       1.62013700       3.40864546       0.00377000      -0.00156031      -0.00001953 
Al      -0.00012430       6.47888094       3.40864554       0.01108000      -0.01911031      -0.00037953 
Al       5.61037941       6.47906003       3.40864542       0.00360000      -0.00247031      -0.00017953 
Al       2.80497236       1.61995781       7.95349439       0.00448000      -0.00248031      -0.00051953 
Al       8.41546484       1.62013690       7.95349426       0.00495000      -0.00331031      -0.00002953 
Al      -0.00012440       6.47888084       7.95349434       0.00574000      -0.00325031       0.00030047 
Al       5.61037931       6.47905993       7.95349422       0.00340000      -0.00258031       0.00020047 
