64
Lattice="11.221007406739036 0.0003581763943235956 -2.5131323619446874e-07 -5.610193513512995 9.717846055813132 -9.1990921583057e-08 -2.0343678424995805e-07 -2.0344042297106932e-07 9.089697596676826" Properties=species:S:1:pos:R:3:force:R:3 virial="4.051878324019648 0.007114538800154815 0.026299047338659228 0.007114538800154815 3.9974242626988117 0.01438992804274791 0.026299047338659228 0.01438992804274791 8.229380843583595" energy=-78270.9735588 pbc="T T T"
Ti       2.80512989       3.21069179       1.13623024       0.00591063      -0.00725984       0.00644063 
Ti       8.41563359       3.21087087       1.13623012       0.00930062      -0.01224984       0.00242063 
Ti       0.00003313       8.06961481       1.13623020       0.00593063      -0.01210984      -0.00159938 
Ti       5.61053683       8.06979390       1.13623007       0.00384063       0.00590016       0.00074063 
Ti       2.80512978       3.21069168       5.68106995      -0.00091938      -0.01037984      -0.00218937 
Ti       8.41563349       3.21087077       5.68106983       0.00762062      -0.01280984      -0.00234937 
Ti       0.00003303       8.06961471       5.68106991       0.00601062      -0.00920984       0.00173062 
Ti       5.61053673       8.06979380       5.68106978       0.00199063      -0.00423984      -0.00070937 
Ti      -1.37760341       4.03475365       3.40864563       0.00955063      -0.00226984      -0.00165938 
Ti       4.23290029       4.03493274       3.40864550       0.00633062      -0.00151984       0.00036063 
Ti      -4.18270017       8.89367668       3.40864558       0.00799063      -0.01118984       0.00580062 
Ti       1.42780354       8.89385577       3.40864546       0.01191063      -0.00692984       0.00028063 
Ti      -1.37760351       4.03475355       7.95349443       0.01323063      -0.01061984       0.00145062 
Ti       4.23290019       4.03493264       7.95349430       0.00617062      -0.00309984      -0.00035937 
Ti      -4.18270027       8.89367658       7.95349438       0.00549062       0.00381016       0.00418062 
Ti       1.42780343       8.89385567       7.95349426       0.01235063      -0.00659984      -0.00118938 
Ti       1.37796181       4.03460838       3.40864557      -0.01122937      -0.00233984       0.00056063 
Ti       6.98847674       4.03478747       3.40864544      -0.00640938      -0.00042984      -0.00015937 
Ti      -1.42712372       8.89353141       3.40864552      -0.01623938      -0.00128984      -0.00045937 
Ti       4.18337998       8.89371049       3.40864540      -0.00841937      -0.00059984      -0.00090937 
Ti       1.37796171       4.03460828       7.95349437      -0.01169937      -0.00101984      -0.00309937 
Ti       6.98847664       4.03478736       7.95349424      -0.00920937      -0.00225984       0.00063063 
Ti      -1.42712382       8.89353130       7.95349432      -0.01112937      -0.00222984      -0.00199937 
Ti       4.18337988       8.89371039       7.95349419      -0.01111937       0.00050016      -0.00073937 
Ti       1.43519314       0.82450360       1.14252040      -0.06066938       0.00074016      -0.05542938 
Ti       7.03793190       0.82468244       1.13623020       0.01602063       0.00035016      -0.00100938 
Ti      -1.37766856       5.68342638       1.13623028       0.01049062       0.00102016       0.00717062 
Ti       4.23283515       5.68360547       1.13623016       0.00859063       0.00637016       0.00086063 
Ti       1.42743371       0.82449354       5.68107913       0.00498062       0.00178016       0.01271063 
Ti       7.03793741       0.82467262       5.68106991       0.01331063      -0.00058984       0.00197063 
Ti      -1.37766305       5.68341656       5.68107908       0.01312063       0.00125016      -0.00421938 
Ti       4.23283505       5.68360537       5.68106987       0.00774063       0.00560016       0.00004063 
Ti       4.18302148       0.82436780       1.13623027       0.00019062       0.00626016       0.00571062 
Ti       9.79352518       0.82454689       1.13623014       0.00562062      -0.00357984      -0.00061937 
Ti       1.37792472       5.68329083       1.13623022      -0.00823938       0.00404016       0.00071063 
Ti       6.98842842       5.68346992       1.13623010      -0.01007937       0.00813016       0.00257062 
Ti       4.18302138       0.82436770       5.68107907      -0.01184937       0.00397016      -0.00125938 
Ti       9.79352508       0.82454679       5.68106985      -0.00530937       0.00217016       0.00079063 
Ti       1.37792462       5.68329073       5.68106993      -0.00671938       0.00420016      -0.00055937 
Ti       6.98842832       5.68346981       5.68106980      -0.01028937       0.00771016      -0.00256937 
Ti       0.00029379       1.64845882       3.40864565      -0.00497938       0.00975016      -0.00101938 
Ti       5.61080872       1.64863791       3.40864553      -0.00128937       0.00894016       0.00330063 
Ti      -2.80479174       6.50738185       3.40864561      -0.00020938       0.00626016      -0.00017937 
Ti       2.80571196       6.50756094       3.40864548      -0.00376938       0.00836016      -0.00053937 
Ti       0.00029369       1.64845872       7.95349445       0.00443062      -0.00048984       0.01053063 
Ti       5.61080862       1.64863781       7.95349432      -0.00204937       0.00654016      -0.00329937 
Ti      -2.80479184       6.50738175       7.95349440      -0.00393938       0.01300016       0.00024063 
Ti       2.80571186       6.50756083       7.95349428      -0.00422938       0.01307016      -0.00048937 
Al       0.00042316       3.23916354       1.13623031       0.00041062      -0.00212984       0.00169063 
Al       5.61092687       3.23934262       1.13623018      -0.00349937       0.00408016       0.00094063 
Al      -2.80467359       8.09808656       1.13623026      -0.00119937      -0.00415984       0.00166062 
Al       2.80582450       8.09827537       1.13623013      -0.00293938       0.00283016      -0.00096937 
Al       0.00042306       3.23916343       5.68107910      -0.00360937       0.00131016      -0.00014937 
Al       5.61092677       3.23934252       5.68106989      -0.00446938       0.00217016      -0.00045937 
Al      -2.80467369       8.09808646       5.68107906      -0.00451937       0.00334016      -0.00006937 
Al       2.80583001       8.09826555       5.68106984      -0.00361938       0.00267016       0.00047063 
Al       2.80497246       1.61995791       3.40864559       0.01391063       0.00360016       0.01574063 
Al       8.41547616       1.62013700       3.40864546       0.00515062      -0.00277984      -0.00043937 
Al      -0.00012430       6.47888094       3.40864554       0.00441062      -0.00338984      -0.00035937 
Al       5.61037941       6.47906003       3.40864542       0.00396062      -0.00178984      -0.00091937 
Al       2.80497236       1.61995781       7.95349439       0.00214063      -0.00329984      -0.00053937 
Al       8.41546484       1.62013690       7.95349426       0.00595063      -0.00386984       0.00038063 
Al      -0.00012440       6.47888084       7.95349434       0.00578063      -0.00199984      -0.00025937 
Al       5.61037931       6.47905993       7.95349422       0.00401062      -0.00098984       0.00069063 
