64
Lattice="11.221007406739036 0.0003581763943235956 -2.5131323619446874e-07 -5.610193513512995 9.717846055813132 -9.1990921583057e-08 -2.0343678424995805e-07 -2.0344042297106932e-07 9.089697596676826" Properties=species:S:1:pos:R:3:force:R:3 virial="4.028443651867486 -0.06067154957662458 -0.02479571435740913 -0.06067154957662458 4.024478069805835 -0.014903412147454737 -0.02479571435740913 -0.014903412147454737 8.232121487660525" energy=-78270.9734048 pbc="T T T"
Ti       2.80512989       3.21069179       1.13623024      -0.00167016      -0.00897984      -0.00735016 
Ti       8.41563359       3.21087087       1.13623012       0.00257984      -0.00838984       0.00069984 
Ti       0.00003313       8.06961481       1.13623020       0.00454984      -0.00834984      -0.00092016 
Ti       5.61053683       8.06979390       1.13623007      -0.00330016      -0.02118984      -0.00187016 
Ti       2.80512978       3.21069168       5.68106995       0.00484984      -0.00718984       0.00309984 
Ti       8.41563349       3.21087077       5.68106983       0.00308984      -0.00846984      -0.00080016 
Ti       0.00003303       8.06961471       5.68106991       0.00457984      -0.00870984       0.00080984 
Ti       5.61053673       8.06979380       5.68106978      -0.00052016      -0.01064984       0.00177984 
Ti      -1.37760341       4.03475365       3.40864563       0.00923984      -0.00648984       0.00068984 
Ti       4.23290029       4.03493274       3.40864550       0.00618984      -0.00407984      -0.00013016 
Ti      -4.18270017       8.89367668       3.40864558       0.00629984       0.00135016      -0.00509016 
Ti       1.42780354       8.89385577       3.40864546       0.00935984      -0.00843984       0.00024984 
Ti      -1.37760351       4.03475355       7.95349443       0.01117984      -0.00399984      -0.00070016 
Ti       4.23290019       4.03493264       7.95349430       0.00570984      -0.00115984       0.00027984 
Ti      -4.18270027       8.89367658       7.95349438       0.00577984      -0.00962984      -0.00477016 
Ti       1.42780343       8.89385567       7.95349426       0.01024984      -0.00940984       0.00082984 
Ti       1.37796181       4.03460838       3.40864557      -0.00868016       0.00141016       0.00001984 
Ti       6.98847674       4.03478747       3.40864544      -0.01038016      -0.00227984       0.00029984 
Ti      -1.42712372       8.89353141       3.40864552      -0.00459016      -0.00268984       0.00177984 
Ti       4.18337998       8.89371049       3.40864540      -0.01080016      -0.00428984       0.00022984 
Ti       1.37796171       4.03460828       7.95349437      -0.00517016       0.00019016       0.00236984 
Ti       6.98847664       4.03478736       7.95349424      -0.01316016      -0.00359984      -0.00073016 
Ti      -1.42712382       8.89353130       7.95349432      -0.00431016       0.00070016       0.00067984 
Ti       4.18337988       8.89371039       7.95349419      -0.01167016      -0.00522984       0.00147984 
Ti       1.41966887       0.82449339       1.12993117       0.07639984       0.00301016       0.05404984 
Ti       7.03793190       0.82468244       1.13623020       0.00785984      -0.00177984      -0.00152016 
Ti      -1.37766856       5.68342638       1.13623028       0.01317984       0.00047016      -0.00168016 
Ti       4.23283515       5.68360547       1.13623016       0.00582984       0.00130016      -0.00265016 
Ti       1.42743371       0.82449354       5.68107913       0.01287984       0.00252016      -0.01148016 
Ti       7.03793741       0.82467262       5.68106991       0.00864984      -0.00079984       0.00053984 
Ti      -1.37766305       5.68341656       5.68107908       0.01208984       0.00090016      -0.00137016 
Ti       4.23283505       5.68360537       5.68106987       0.00644984       0.00155016       0.00157984 
Ti       4.18302148       0.82436780       1.13623027      -0.02186016       0.00359016      -0.00592016 
Ti       9.79352518       0.82454689       1.13623014      -0.02118016       0.00950016      -0.00188016 
Ti       1.37792472       5.68329083       1.13623022      -0.00394016       0.00687016      -0.00246016 
Ti       6.98842842       5.68346992       1.13623010      -0.01161016       0.00525016       0.00068984 
Ti       4.18302138       0.82436770       5.68107907      -0.00991016       0.00536016       0.00159984 
Ti       9.79352508       0.82454679       5.68106985      -0.00946016       0.00388016       0.00182984 
Ti       1.37792462       5.68329073       5.68106993      -0.00432016       0.00624016       0.00232984 
Ti       6.98842832       5.68346981       5.68106980      -0.01225016       0.00491016      -0.00080016 
Ti       0.00029379       1.64845882       3.40864565      -0.00240016       0.00835016       0.00094984 
Ti       5.61080872       1.64863791       3.40864553      -0.00807016       0.00922016      -0.00187016 
Ti      -2.80479174       6.50738185       3.40864561      -0.00488016       0.01133016      -0.00091016 
Ti       2.80571196       6.50756094       3.40864548      -0.00203016       0.00891016       0.00031984 
Ti       0.00029369       1.64845872       7.95349445      -0.01206016       0.01490016      -0.01111016 
Ti       5.61080862       1.64863781       7.95349432      -0.00598016       0.00919016       0.00192984 
Ti      -2.80479184       6.50738175       7.95349440      -0.00213016       0.01071016       0.00098984 
Ti       2.80571186       6.50756083       7.95349428      -0.00224016       0.00823016       0.00068984 
Al       0.00042316       3.23916354       1.13623031      -0.00815016       0.00726016      -0.00122016 
Al       5.61092687       3.23934262       1.13623018      -0.00587016       0.00155016      -0.00078016 
Al      -2.80467359       8.09808656       1.13623026      -0.00703016       0.01017016      -0.00075016 
Al       2.80582450       8.09827537       1.13623013      -0.00513016       0.00116016      -0.00023016 
Al       0.00042306       3.23916343       5.68107910      -0.00381016       0.00359016      -0.00034016 
Al       5.61092677       3.23934252       5.68106989      -0.00498016       0.00292016       0.00030984 
Al      -2.80467369       8.09808646       5.68107906      -0.00355016       0.00343016      -0.00083016 
Al       2.80583001       8.09826555       5.68106984      -0.00445016       0.00118016       0.00079984 
Al       2.80497246       1.61995791       3.40864559      -0.00521016      -0.00824984      -0.01457016 
Al       8.41547616       1.62013700       3.40864546       0.00418984      -0.00234984       0.00061984 
Al      -0.00012430       6.47888094       3.40864554       0.00529984      -0.00239984       0.00000984 
Al       5.61037941       6.47906003       3.40864542       0.00301984      -0.00242984       0.00067984 
Al       2.80497236       1.61995781       7.95349439       0.00576984      -0.00122984       0.00015984 
Al       8.41546484       1.62013690       7.95349426       0.00310984      -0.00306984      -0.00052016 
Al      -0.00012440       6.47888084       7.95349434       0.00588984      -0.00250984       0.00043984 
Al       5.61037931       6.47905993       7.95349422       0.00247984      -0.00305984      -0.00056016 
