64
Lattice="11.221007406739036 0.0003581763943235956 -2.5131323619446874e-07 -5.610193513512995 9.717846055813132 -9.1990921583057e-08 -2.0343678424995805e-07 -2.0344042297106932e-07 9.089697596676826" Properties=species:S:1:pos:R:3:force:R:3 virial="4.035954130218259 -0.040917877934107776 -0.00011754455408951433 -0.040917877934107776 3.9701910454829146 -0.0005691631040123851 -0.00011754455408951433 -0.0005691631040123851 8.233958894637608" energy=-78270.9734235 pbc="T T T"
Ti       2.80512989       3.21069179       1.13623024       0.00477000       0.00108016       0.00102016 
Ti       8.41563359       3.21087087       1.13623012       0.00235000      -0.00949984       0.00147016 
Ti       0.00003313       8.06961481       1.13623020       0.00006000      -0.01022984       0.00115016 
Ti       5.61053683       8.06979390       1.13623007      -0.00105000      -0.00623984       0.00056016 
Ti       2.80512978       3.21069168       5.68106995       0.00301000      -0.00915984      -0.00096984 
Ti       8.41563349       3.21087077       5.68106983       0.00422000      -0.00991984      -0.00163984 
Ti       0.00003303       8.06961471       5.68106991       0.00099000      -0.01073984      -0.00095984 
Ti       5.61053673       8.06979380       5.68106978       0.00137000      -0.00907984      -0.00035984 
Ti      -1.37760341       4.03475365       3.40864563       0.00748000      -0.00536984       0.00484016 
Ti       4.23290029       4.03493274       3.40864550       0.01048000      -0.00388984       0.00383016 
Ti      -4.18270017       8.89367668       3.40864558       0.00738000       0.00312016      -0.00603984 
Ti       1.42780354       8.89385577       3.40864546       0.00892000      -0.00353984       0.00273016 
Ti      -1.37760351       4.03475355       7.95349443       0.00845000      -0.00559984      -0.00466984 
Ti       4.23290019       4.03493264       7.95349430       0.00923000      -0.00362984      -0.00388984 
Ti      -4.18270027       8.89367658       7.95349438       0.00660000       0.00340016       0.00589016 
Ti       1.42780343       8.89385567       7.95349426       0.00956000      -0.00357984      -0.00289984 
Ti       1.37796181       4.03460838       3.40864557      -0.01194000      -0.00508984      -0.00039984 
Ti       6.98847674       4.03478747       3.40864544      -0.00889000      -0.00288984       0.00229016 
Ti      -1.42712372       8.89353141       3.40864552      -0.00712000      -0.00042984       0.00430016 
Ti       4.18337998       8.89371049       3.40864540      -0.00893000       0.00081016       0.00223016 
Ti       1.37796171       4.03460828       7.95349437      -0.01208000      -0.00590984       0.00052016 
Ti       6.98847664       4.03478736       7.95349424      -0.00838000      -0.00239984      -0.00208984 
Ti      -1.42712382       8.89353130       7.95349432      -0.00735000      -0.00058984      -0.00450984 
Ti       4.18337988       8.89371039       7.95349419      -0.00851000       0.00112016      -0.00200984 
Ti       1.42242952       0.83316196       1.13623033       0.05066000      -0.06866984       0.00021016 
Ti       7.03793190       0.82468244       1.13623020       0.01091000       0.00464016       0.00113016 
Ti      -1.37766856       5.68342638       1.13623028       0.01078000      -0.00377984       0.00087016 
Ti       4.23283515       5.68360547       1.13623016       0.00940000      -0.00007984       0.00116016 
Ti       1.42743371       0.82449354       5.68107913       0.00969000       0.00150016      -0.00024984 
Ti       7.03793741       0.82467262       5.68106991       0.01150000       0.00497016      -0.00115984 
Ti      -1.37766305       5.68341656       5.68107908       0.00962000      -0.00129984      -0.00094984 
Ti       4.23283505       5.68360537       5.68106987       0.00953000      -0.00001984      -0.00118984 
Ti       4.18302148       0.82436780       1.13623027      -0.01848000       0.01036016       0.00110016 
Ti       9.79352518       0.82454689       1.13623014      -0.00873000       0.01314016      -0.00011984 
Ti       1.37792472       5.68329083       1.13623022      -0.00702000       0.00475016       0.00069016 
Ti       6.98842842       5.68346992       1.13623010      -0.00746000       0.00481016       0.00114016 
Ti       4.18302138       0.82436770       5.68107907      -0.00928000       0.00634016      -0.00131984 
Ti       9.79352508       0.82454679       5.68106985      -0.00802000       0.00976016      -0.00002984 
Ti       1.37792462       5.68329073       5.68106993      -0.00858000       0.00422016      -0.00072984 
Ti       6.98842832       5.68346981       5.68106980      -0.00777000       0.00378016      -0.00133984 
Ti       0.00029379       1.64845882       3.40864565      -0.01024000       0.01423016       0.01018016 
Ti       5.61080872       1.64863791       3.40864553      -0.00458000       0.01015016      -0.00040984 
Ti      -2.80479174       6.50738185       3.40864561      -0.00437000       0.00807016       0.00024016 
Ti       2.80571196       6.50756094       3.40864548      -0.00258000       0.00637016       0.00146016 
Ti       0.00029369       1.64845872       7.95349445      -0.01020000       0.01388016      -0.01019984 
Ti       5.61080862       1.64863781       7.95349432      -0.00479000       0.00920016       0.00044016 
Ti      -2.80479184       6.50738175       7.95349440      -0.00425000       0.00839016      -0.00004984 
Ti       2.80571186       6.50756083       7.95349428      -0.00258000       0.00650016      -0.00142984 
Al       0.00042316       3.23916354       1.13623031      -0.01548000       0.01636016       0.00002016 
Al       5.61092687       3.23934262       1.13623018      -0.00338000       0.00083016       0.00000016 
Al      -2.80467359       8.09808656       1.13623026      -0.00991000       0.01889016       0.00002016 
Al       2.80582450       8.09827537       1.13623013      -0.00417000       0.00260016       0.00012016 
Al       0.00042306       3.23916343       5.68107910      -0.00437000       0.00287016      -0.00005984 
Al       5.61092677       3.23934252       5.68106989      -0.00437000       0.00236016      -0.00005984 
Al      -2.80467369       8.09808646       5.68107906      -0.00434000       0.00318016       0.00001016 
Al       2.80583001       8.09826555       5.68106984      -0.00408000       0.00247016      -0.00007984 
Al       2.80497246       1.61995791       3.40864559       0.00503000      -0.00318984       0.00005016 
Al       8.41547616       1.62013700       3.40864546       0.00443000      -0.00236984       0.00012016 
Al      -0.00012430       6.47888094       3.40864554       0.00454000      -0.00312984       0.00029016 
Al       5.61037941       6.47906003       3.40864542       0.00422000      -0.00264984       0.00022016 
Al       2.80497236       1.61995781       7.95349439       0.00488000      -0.00316984      -0.00001984 
Al       8.41546484       1.62013690       7.95349426       0.00451000      -0.00229984      -0.00009984 
Al      -0.00012440       6.47888084       7.95349434       0.00450000      -0.00312984      -0.00021984 
Al       5.61037931       6.47905993       7.95349422       0.00421000      -0.00257984      -0.00014984 
