64
Lattice="11.221007406739036 0.0003581763943235956 -2.5131323619446874e-07 -5.610193513512995 9.717846055813132 -9.1990921583057e-08 -2.0343678424995805e-07 -2.0344042297106932e-07 9.089697596676826" Properties=species:S:1:pos:R:3:force:R:3 virial="4.028530263644183 -0.023558403261730032 0.00014847733148149177 -0.023558403261730032 4.0181615966623925 0.0004825513273148483 0.00014847733148149177 0.0004825513273148483 8.241190977991854" energy=-78270.9734947 pbc="T T T"
Ti       2.80512989       3.21069179       1.13623024       0.00303969      -0.01681000       0.00068031 
Ti       8.41563359       3.21087087       1.13623012       0.00644969      -0.00881000      -0.00093969 
Ti       0.00003313       8.06961481       1.13623020       0.00660969      -0.01059000      -0.00116969 
Ti       5.61053683       8.06979390       1.13623007       0.00565969      -0.01537000      -0.00169969 
Ti       2.80512978       3.21069168       5.68106995       0.00436969      -0.00640000      -0.00064969 
Ti       8.41563349       3.21087077       5.68106983       0.00583969      -0.00741000       0.00093031 
Ti       0.00003303       8.06961471       5.68106991       0.00504969      -0.01280000       0.00127031 
Ti       5.61053673       8.06979380       5.68106978       0.00305969      -0.01315000       0.00162031 
Ti      -1.37760341       4.03475365       3.40864563       0.01168969      -0.00561000      -0.00222969 
Ti       4.23290029       4.03493274       3.40864550       0.00736969      -0.00378000      -0.00196969 
Ti      -4.18270017       8.89367668       3.40864558       0.00810969      -0.01146000       0.00830031 
Ti       1.42780354       8.89385577       3.40864546       0.00993969      -0.00552000      -0.00280969 
Ti      -1.37760351       4.03475355       7.95349443       0.01056969      -0.00600000       0.00217031 
Ti       4.23290019       4.03493264       7.95349430       0.00779969      -0.00351000       0.00197031 
Ti      -4.18270027       8.89367658       7.95349438       0.00733969      -0.01122000      -0.00829969 
Ti       1.42780343       8.89385567       7.95349426       0.00999969      -0.00507000       0.00276031 
Ti       1.37796181       4.03460838       3.40864557      -0.00757031       0.00131000       0.00220031 
Ti       6.98847674       4.03478747       3.40864544      -0.01250031       0.00057000      -0.00022969 
Ti      -1.42712372       8.89353141       3.40864552      -0.01298031      -0.00057000      -0.00410969 
Ti       4.18337998       8.89371049       3.40864540      -0.01031031      -0.00072000      -0.00014969 
Ti       1.37796171       4.03460828       7.95349437      -0.00923031       0.00073000      -0.00218969 
Ti       6.98847664       4.03478736       7.95349424      -0.01126031       0.00094000       0.00023031 
Ti      -1.42712382       8.89353130       7.95349432      -0.01302031      -0.00069000       0.00409031 
Ti       4.18337988       8.89371039       7.95349419      -0.00936031       0.00014000       0.00034031 
Ti       1.43243249       0.81583504       1.13623033      -0.03353031       0.07737000      -0.00138969 
Ti       7.03793190       0.82468244       1.13623020       0.00934969       0.00165000      -0.00102969 
Ti      -1.37766856       5.68342638       1.13623028       0.00888969       0.00286000      -0.00102969 
Ti       4.23283515       5.68360547       1.13623016       0.00982969      -0.00070000       0.00028031 
Ti       1.42743371       0.82449354       5.68107913       0.00648969       0.00642000       0.00135031 
Ti       7.03793741       0.82467262       5.68106991       0.01074969       0.00352000       0.00100031 
Ti      -1.37766305       5.68341656       5.68107908       0.01000969      -0.00088000       0.00096031 
Ti       4.23283505       5.68360537       5.68106987       0.00996969      -0.00025000      -0.00026969 
Ti       4.18302148       0.82436780       1.13623027       0.00176969       0.00347000      -0.00081969 
Ti       9.79352518       0.82454689       1.13623014      -0.00661031       0.00041000      -0.00176969 
Ti       1.37792472       5.68329083       1.13623022      -0.00885031       0.00170000       0.00013031 
Ti       6.98842842       5.68346992       1.13623010      -0.01095031       0.00281000      -0.00096969 
Ti       4.18302138       0.82436770       5.68107907      -0.01023031       0.00827000       0.00083031 
Ti       9.79352508       0.82454679       5.68106985      -0.00610031       0.00387000       0.00169031 
Ti       1.37792462       5.68329073       5.68106993      -0.00710031       0.00170000      -0.00007969 
Ti       6.98842832       5.68346981       5.68106980      -0.01157031       0.00419000       0.00097031 
Ti       0.00029379       1.64845882       3.40864565       0.00118969       0.00720000      -0.00823969 
Ti       5.61080872       1.64863791       3.40864553      -0.00373031       0.01257000       0.00036031 
Ti      -2.80479174       6.50738185       3.40864561      -0.00329031       0.00416000       0.00151031 
Ti       2.80571196       6.50756094       3.40864548      -0.00166031       0.00511000       0.00048031 
Ti       0.00029369       1.64845872       7.95349445       0.00064969       0.00531000       0.00836031 
Ti       5.61080862       1.64863781       7.95349432      -0.00319031       0.01139000      -0.00031969 
Ti      -2.80479184       6.50738175       7.95349440      -0.00349031       0.00467000      -0.00144969 
Ti       2.80571186       6.50756083       7.95349428      -0.00126031       0.00700000      -0.00051969 
Al       0.00042316       3.23916354       1.13623031       0.00694969      -0.01063000      -0.00021969 
Al       5.61092687       3.23934262       1.13623018      -0.00576031       0.00459000      -0.00003969 
Al      -2.80467359       8.09808656       1.13623026       0.00198969      -0.01516000      -0.00054969 
Al       2.80582450       8.09827537       1.13623013      -0.00403031       0.00203000      -0.00057969 
Al       0.00042306       3.23916343       5.68107910      -0.00368031       0.00208000       0.00014031 
Al       5.61092677       3.23934252       5.68106989      -0.00488031       0.00357000       0.00006031 
Al      -2.80467369       8.09808646       5.68107906      -0.00455031       0.00120000       0.00048031 
Al       2.80583001       8.09826555       5.68106984      -0.00332031       0.00141000       0.00044031 
Al       2.80497246       1.61995791       3.40864559       0.00384969      -0.00045000      -0.00022969 
Al       8.41547616       1.62013700       3.40864546       0.00526969      -0.00251000      -0.00055969 
Al      -0.00012430       6.47888094       3.40864554       0.00427969      -0.00349000      -0.00052969 
Al       5.61037941       6.47906003       3.40864542       0.00325969      -0.00431000       0.00019031 
Al       2.80497236       1.61995781       7.95349439       0.00353969      -0.00094000       0.00030031 
Al       8.41546484       1.62013690       7.95349426       0.00543969      -0.00263000       0.00058031 
Al      -0.00012440       6.47888084       7.95349434       0.00397969      -0.00316000       0.00058031 
Al       5.61037931       6.47905993       7.95349422       0.00366969      -0.00362000      -0.00021969 
