64
Lattice="11.221007406739036 0.0003581763943235956 -2.5131323619446874e-07 -5.610193513512995 9.717846055813132 -9.1990921583057e-08 -2.0343678424995805e-07 -2.0344042297106932e-07 9.089697596676826" Properties=species:S:1:pos:R:3:force:R:3 virial="4.002602409634228 0.0004825513273148483 -0.025408183349770283 0.0004825513273148483 3.9906623575609252 0.014909598702933131 -0.025408183349770283 0.014909598702933131 8.221672395457515" energy=-78270.973419 pbc="T T T"
Ti       2.80512989       3.21069179       1.13623024       0.00853922      -0.01005969       0.00442000 
Ti       8.41563359       3.21087087       1.13623012       0.00569922      -0.00733969      -0.00056000 
Ti       0.00003313       8.06961481       1.13623020       0.00707922      -0.02163969       0.00103000 
Ti       5.61053683       8.06979390       1.13623007       0.00483922      -0.00919969      -0.00015000 
Ti       2.80512978       3.21069168       5.68106995       0.00220922      -0.00807969      -0.00014000 
Ti       8.41563349       3.21087077       5.68106983       0.00511922      -0.00745969       0.00066000 
Ti       0.00003303       8.06961471       5.68106991       0.00418922      -0.01138969      -0.00099000 
Ti       5.61053673       8.06979380       5.68106978       0.00467922      -0.01010969       0.00026000 
Ti      -1.37760341       4.03475365       3.40864563       0.00944922      -0.00639969       0.00048000 
Ti       4.23290029       4.03493274       3.40864550       0.00711922      -0.00421969      -0.00230000 
Ti      -4.18270017       8.89367668       3.40864558       0.00438922      -0.00513969      -0.00034000 
Ti       1.42780354       8.89385577       3.40864546       0.00910922      -0.00502969      -0.00159000 
Ti      -1.37760351       4.03475355       7.95349443       0.00907922      -0.00609969      -0.00001000 
Ti       4.23290019       4.03493264       7.95349430       0.00770922      -0.00153969      -0.00011000 
Ti      -4.18270027       8.89367658       7.95349438       0.00262922      -0.00727969      -0.00215000 
Ti       1.42780343       8.89385567       7.95349426       0.00952922      -0.00556969      -0.00003000 
Ti       1.37796181       4.03460838       3.40864557      -0.01114078      -0.00235969      -0.00006000 
Ti       6.98847674       4.03478747       3.40864544      -0.00850078       0.00252031       0.00043000 
Ti      -1.42712372       8.89353141       3.40864552      -0.01054078      -0.00821969       0.00489000 
Ti       4.18337998       8.89371049       3.40864540      -0.00805078      -0.00192969      -0.00048000 
Ti       1.37796171       4.03460828       7.95349437      -0.00979078      -0.00444969       0.00008000 
Ti       6.98847664       4.03478736       7.95349424      -0.00860078      -0.00115969      -0.00043000 
Ti      -1.42712382       8.89353130       7.95349432      -0.01009078       0.00347031       0.00502000 
Ti       4.18337988       8.89371039       7.95349419      -0.00752078      -0.00184969      -0.00056000 
Ti       1.42742820       0.82450335       1.13623033       0.02039922       0.00026031       0.00492000 
Ti       7.03793190       0.82468244       1.13623020       0.02425922       0.00944031       0.00134000 
Ti      -1.37766856       5.68342638       1.13623028       0.00803922      -0.00024969      -0.00037000 
Ti       4.23283515       5.68360547       1.13623016       0.01102922       0.00224031      -0.00039000 
Ti       1.42743371       0.82449354       5.68107913       0.00854922       0.00169031      -0.00066000 
Ti       7.03793741       0.82467262       5.68106991       0.01220922       0.00361031      -0.00128000 
Ti      -1.37766305       5.68341656       5.68107908       0.00870922      -0.00023969       0.00048000 
Ti       4.23283505       5.68360537       5.68106987       0.01127922       0.00209031       0.00049000 
Ti       4.19079763       0.82436805       1.14252034      -0.07559078       0.00619031      -0.05436000 
Ti       9.79352518       0.82454689       1.13623014      -0.00644078       0.00548031       0.00008000 
Ti       1.37792472       5.68329083       1.13623022      -0.00782078       0.00232031      -0.00000000 
Ti       6.98842842       5.68346992       1.13623010      -0.00957078       0.00422031       0.00243000 
Ti       4.18302138       0.82436770       5.68107907      -0.01172078       0.00563031       0.01183000 
Ti       9.79352508       0.82454679       5.68106985      -0.00695078       0.00558031       0.00085000 
Ti       1.37792462       5.68329073       5.68106993      -0.00812078       0.00261031       0.00093000 
Ti       6.98842832       5.68346981       5.68106980      -0.00859078       0.00533031       0.00051000 
Ti       0.00029379       1.64845882       3.40864565      -0.00361078       0.00941031      -0.00212000 
Ti       5.61080872       1.64863791       3.40864553       0.00654922       0.01602031       0.01121000 
Ti      -2.80479174       6.50738185       3.40864561      -0.00660078       0.00739031      -0.00067000 
Ti       2.80571196       6.50756094       3.40864548      -0.00234078       0.00812031      -0.00026000 
Ti       0.00029369       1.64845872       7.95349445      -0.00125078       0.01055031       0.00211000 
Ti       5.61080862       1.64863781       7.95349432      -0.00390078       0.01035031      -0.00108000 
Ti      -2.80479184       6.50738175       7.95349440      -0.00346078       0.00938031       0.00068000 
Ti       2.80571186       6.50756083       7.95349428      -0.00211078       0.00756031      -0.00083000 
Al       0.00042316       3.23916354       1.13623031      -0.00357078       0.00110031       0.00041000 
Al       5.61092687       3.23934262       1.13623018       0.00041922       0.00778031       0.00095000 
Al      -2.80467359       8.09808656       1.13623026      -0.00178078       0.00898031       0.00102000 
Al       2.80582450       8.09827537       1.13623013      -0.00276078       0.00201031      -0.00038000 
Al       0.00042306       3.23916343       5.68107910      -0.00438078       0.00262031       0.00012000 
Al       5.61092677       3.23934252       5.68106989      -0.00400078       0.00416031       0.00056000 
Al      -2.80467369       8.09808646       5.68107906      -0.00528078       0.00213031       0.00054000 
Al       2.80583001       8.09826555       5.68106984      -0.00325078       0.00211031      -0.00017000 
Al       2.80497246       1.61995791       3.40864559       0.00247922      -0.00180969      -0.00015000 
Al       8.41547616       1.62013700       3.40864546       0.00578922      -0.00172969       0.00040000 
Al      -0.00012430       6.47888094       3.40864554       0.00446922      -0.00395969       0.00062000 
Al       5.61037941       6.47906003       3.40864542       0.00474922      -0.00245969      -0.00026000 
Al       2.80497236       1.61995781       7.95349439       0.01331922      -0.00792969       0.01451000 
Al       8.41546484       1.62013690       7.95349426       0.00511922      -0.00168969      -0.00046000 
Al      -0.00012440       6.47888084       7.95349434       0.00415922      -0.00333969      -0.00065000 
Al       5.61037931       6.47905993       7.95349422       0.00444922      -0.00242969      -0.00027000 
