64
Lattice="11.221007406739036 0.0003581763943235956 -2.5131323619446874e-07 -5.610193513512995 9.717846055813132 -9.1990921583057e-08 -2.0343678424995805e-07 -2.0344042297106932e-07 9.089697596676826" Properties=species:S:1:pos:R:3:force:R:3 virial="4.0422829764726576 -0.06150054801072958 0.02623099522839688 -0.06150054801072958 3.9968365399283634 -0.014996210479630668 0.02623099522839688 -0.014996210479630668 8.235202392288766" energy=-78270.9735449 pbc="T T T"
Ti       2.80512989       3.21069179       1.13623024      -0.00109969      -0.00706000      -0.00578953 
Ti       8.41563359       3.21087087       1.13623012       0.00009031      -0.01166000      -0.00024953 
Ti       0.00003313       8.06961481       1.13623020       0.00119031       0.00352000      -0.00235953 
Ti       5.61053683       8.06979390       1.13623007      -0.00008969      -0.01043000       0.00031047 
Ti       2.80512978       3.21069168       5.68106995       0.00538031      -0.00940000       0.00160047 
Ti       8.41563349       3.21087077       5.68106983       0.00069031      -0.01109000       0.00015047 
Ti       0.00003303       8.06961471       5.68106991       0.00396031      -0.00688000       0.00237047 
Ti       5.61053673       8.06979380       5.68106978       0.00037031      -0.01072000      -0.00036953 
Ti      -1.37760341       4.03475365       3.40864563       0.00952031      -0.00397000      -0.00054953 
Ti       4.23290029       4.03493274       3.40864550       0.00908031      -0.00430000       0.00194047 
Ti      -4.18270017       8.89367668       3.40864558       0.01185031      -0.00461000       0.00017047 
Ti       1.42780354       8.89385577       3.40864546       0.01006031      -0.00573000       0.00183047 
Ti      -1.37760351       4.03475355       7.95349443       0.01049031      -0.00497000       0.00003047 
Ti       4.23290019       4.03493264       7.95349430       0.00797031      -0.00810000       0.00045047 
Ti      -4.18270027       8.89367658       7.95349438       0.01365031      -0.00128000       0.00233047 
Ti       1.42780343       8.89385567       7.95349426       0.00739031      -0.00407000      -0.00026953 
Ti       1.37796181       4.03460838       3.40864557      -0.00613969      -0.00014000      -0.00022953 
Ti       6.98847674       4.03478747       3.40864544      -0.01309969      -0.00509000      -0.00075953 
Ti      -1.42712372       8.89353141       3.40864552      -0.00837969       0.00641000      -0.00442953 
Ti       4.18337998       8.89371049       3.40864540      -0.01206969      -0.00355000       0.00010047 
Ti       1.37796171       4.03460828       7.95349437      -0.00686969       0.00137000       0.00020047 
Ti       6.98847664       4.03478736       7.95349424      -0.01364969      -0.00291000       0.00079047 
Ti      -1.42712382       8.89353130       7.95349432      -0.00734969      -0.00408000      -0.00538953 
Ti       4.18337988       8.89371039       7.95349419      -0.01269969      -0.00278000       0.00090047 
Ti       1.42742820       0.82450335       1.13623033      -0.00056969       0.00499000      -0.00567953 
Ti       7.03793190       0.82468244       1.13623020      -0.00547969      -0.00610000      -0.00253953 
Ti      -1.37766856       5.68342638       1.13623028       0.01295031       0.00349000       0.00038047 
Ti       4.23283515       5.68360547       1.13623016       0.00686031       0.00007000       0.00029047 
Ti       1.42743371       0.82449354       5.68107913       0.01221031       0.00339000       0.00143047 
Ti       7.03793741       0.82467262       5.68106991       0.00565031      -0.00076000       0.00235047 
Ti      -1.37766305       5.68341656       5.68107908       0.01157031       0.00385000      -0.00050953 
Ti       4.23283505       5.68360537       5.68106987       0.00678031       0.00060000      -0.00039953 
Ti       4.17525654       0.82436755       1.12993111       0.05831031       0.00615000       0.05311047 
Ti       9.79352518       0.82454689       1.13623014      -0.01100969       0.00387000      -0.00057953 
Ti       1.37792472       5.68329083       1.13623022      -0.00677969       0.00703000      -0.00030953 
Ti       6.98842842       5.68346992       1.13623010      -0.01146969       0.00570000      -0.00210953 
Ti       4.18302138       0.82436770       5.68107907      -0.00506969       0.00642000      -0.01032953 
Ti       9.79352508       0.82454679       5.68106985      -0.01098969       0.00366000      -0.00047953 
Ti       1.37792462       5.68329073       5.68106993      -0.00719969       0.00737000      -0.00059953 
Ti       6.98842832       5.68346981       5.68106980      -0.01151969       0.00494000      -0.00083953 
Ti       0.00029379       1.64845882       3.40864565      -0.00211969       0.00812000       0.00136047 
Ti       5.61080872       1.64863791       3.40864553      -0.01380969       0.00270000      -0.01061953 
Ti      -2.80479174       6.50738185       3.40864561      -0.00151969       0.00970000       0.00149047 
Ti       2.80571196       6.50756094       3.40864548      -0.00320969       0.00850000       0.00037047 
Ti       0.00029369       1.64845872       7.95349445      -0.00410969       0.00806000      -0.00137953 
Ti       5.61080862       1.64863781       7.95349432      -0.00402969       0.00770000       0.00108047 
Ti      -2.80479184       6.50738175       7.95349440      -0.00409969       0.00907000      -0.00142953 
Ti       2.80571186       6.50756083       7.95349428      -0.00391969       0.00935000       0.00069047 
Al       0.00042316       3.23916354       1.13623031      -0.00390969       0.00366000      -0.00065953 
Al       5.61092687       3.23934262       1.13623018      -0.00929969      -0.00245000      -0.00130953 
Al      -2.80467359       8.09808656       1.13623026      -0.00685969      -0.00373000      -0.00110953 
Al       2.80582450       8.09827537       1.13623013      -0.00538969       0.00228000       0.00028047 
Al       0.00042306       3.23916343       5.68107910      -0.00307969       0.00256000       0.00015047 
Al       5.61092677       3.23934252       5.68106989      -0.00488969       0.00117000      -0.00026953 
Al      -2.80467369       8.09808646       5.68107906      -0.00310969       0.00290000      -0.00045953 
Al       2.80583001       8.09826555       5.68106984      -0.00499969       0.00207000       0.00024047 
Al       2.80497246       1.61995791       3.40864559       0.00630031      -0.00267000      -0.00001953 
Al       8.41547616       1.62013700       3.40864546       0.00275031      -0.00363000      -0.00065953 
Al      -0.00012430       6.47888094       3.40864554       0.00472031      -0.00134000      -0.00032953 
Al       5.61037941       6.47906003       3.40864542       0.00308031      -0.00266000       0.00036047 
Al       2.80497236       1.61995781       7.95349439      -0.00482969       0.00369000      -0.01505953 
Al       8.41546484       1.62013690       7.95349426       0.00348031      -0.00360000       0.00070047 
Al      -0.00012440       6.47888084       7.95349434       0.00510031      -0.00180000       0.00042047 
Al       5.61037931       6.47905993       7.95349422       0.00326031      -0.00280000       0.00019047 
