64
Lattice="11.221007406739036 0.0003581763943235956 -2.5131323619446874e-07 -5.610193513512995 9.717846055813132 -9.1990921583057e-08 -2.0343678424995805e-07 -2.0344042297106932e-07 9.089697596676826" Properties=species:S:1:pos:R:3:force:R:3 virial="4.049595485048121 -0.06364728276173282 0.00023508910817902865 -0.06364728276173282 3.9525284295920953 2.4746221913581962e-05 0.00023508910817902865 2.4746221913581962e-05 8.232542173433055" energy=-78270.9735589 pbc="T T T"
Ti       2.80512989       3.21069179       1.13623024      -0.00777906       0.00164016      -0.00000016 
Ti       8.41563359       3.21087087       1.13623012       0.00465094      -0.00938984       0.00006984 
Ti       0.00003313       8.06961481       1.13623020      -0.00072906       0.00796016      -0.00012016 
Ti       5.61053683       8.06979390       1.13623007       0.00717094      -0.01012984       0.00115984 
Ti       2.80512978       3.21069168       5.68106995       0.00166094      -0.01084984      -0.00001016 
Ti       8.41563349       3.21087077       5.68106983       0.00451094      -0.00754984      -0.00007016 
Ti       0.00003303       8.06961471       5.68106991       0.00025094      -0.01002984       0.00010984 
Ti       5.61053673       8.06979380       5.68106978       0.00671094      -0.00996984      -0.00115016 
Ti      -1.37760341       4.03475365       3.40864563       0.00560094      -0.00382984       0.00084984 
Ti       4.23290029       4.03493274       3.40864550       0.01317094      -0.00938984      -0.00113016 
Ti      -4.18270017       8.89367668       3.40864558       0.01090094      -0.00573984       0.00170984 
Ti       1.42780354       8.89385577       3.40864546       0.00720094      -0.00428984       0.00004984 
Ti      -1.37760351       4.03475355       7.95349443       0.00490094      -0.00311984      -0.00082016 
Ti       4.23290019       4.03493264       7.95349430       0.01330094      -0.00981984       0.00115984 
Ti      -4.18270027       8.89367658       7.95349438       0.01260094      -0.00680984      -0.00178016 
Ti       1.42780343       8.89385567       7.95349426       0.00620094      -0.00377984      -0.00011016 
Ti       1.37796181       4.03460838       3.40864557      -0.01486906       0.00061016       0.00252984 
Ti       6.98847674       4.03478747       3.40864544      -0.00470906       0.00071016       0.00240984 
Ti      -1.42712372       8.89353141       3.40864552      -0.01217906       0.00368016      -0.00884016 
Ti       4.18337998       8.89371049       3.40864540      -0.00683906       0.00197016       0.00054984 
Ti       1.37796171       4.03460828       7.95349437      -0.01436906       0.00100016      -0.00253016 
Ti       6.98847664       4.03478736       7.95349424      -0.00536906       0.00062016      -0.00243016 
Ti      -1.42712382       8.89353130       7.95349432      -0.01104906       0.00377016       0.00881984 
Ti       4.18337988       8.89371039       7.95349419      -0.00821906       0.00157016      -0.00054016 
Ti       1.42742820       0.82450335       1.13623033       0.00342094       0.00529016       0.00124984 
Ti       7.03793190       0.82468244       1.13623020      -0.00457906       0.00036016      -0.00021016 
Ti      -1.37766856       5.68342638       1.13623028       0.00824094       0.00389016      -0.00000016 
Ti       4.23283515       5.68360547       1.13623016       0.01220094       0.00403016       0.00011984 
Ti       1.42743371       0.82449354       5.68107913       0.00832094      -0.00095984      -0.00121016 
Ti       7.03793741       0.82467262       5.68106991       0.01094094       0.00554016       0.00015984 
Ti      -1.37766305       5.68341656       5.68107908       0.00669094       0.00155016      -0.00003016 
Ti       4.23283505       5.68360537       5.68106987       0.01287094       0.00380016      -0.00013016 
Ti       4.17802279       0.83302640       1.13623027       0.03490094      -0.07149984      -0.00017016 
Ti       9.79352518       0.82454689       1.13623014      -0.01060906       0.00770016       0.00116984 
Ti       1.37792472       5.68329083       1.13623022      -0.01356906       0.00633016       0.00038984 
Ti       6.98842842       5.68346992       1.13623010      -0.00660906       0.00381016       0.00000984 
Ti       4.18302138       0.82436770       5.68107907      -0.00770906       0.00007016       0.00019984 
Ti       9.79352508       0.82454679       5.68106985      -0.00957906       0.00790016      -0.00110016 
Ti       1.37792462       5.68329073       5.68106993      -0.01318906       0.00519016      -0.00043016 
Ti       6.98842832       5.68346981       5.68106980      -0.00534906       0.00486016       0.00002984 
Ti       0.00029379       1.64845882       3.40864565      -0.00659906       0.00764016       0.00078984 
Ti       5.61080872       1.64863791       3.40864553      -0.00314906       0.00917016      -0.00039016 
Ti      -2.80479174       6.50738185       3.40864561      -0.00305906       0.00895016       0.00044984 
Ti       2.80571196       6.50756094       3.40864548      -0.00477906       0.00960016      -0.00017016 
Ti       0.00029369       1.64845872       7.95349445      -0.00689906       0.00881016      -0.00080016 
Ti       5.61080862       1.64863781       7.95349432      -0.00343906       0.00938016       0.00036984 
Ti      -2.80479184       6.50738175       7.95349440      -0.00267906       0.00819016      -0.00040016 
Ti       2.80571186       6.50756083       7.95349428      -0.00492906       0.00927016       0.00019984 
Al       0.00042316       3.23916354       1.13623031      -0.00731906       0.00265016       0.00027984 
Al       5.61092687       3.23934262       1.13623018       0.00278094       0.01011016      -0.00027016 
Al      -2.80467359       8.09808656       1.13623026      -0.00159906       0.00994016       0.00010984 
Al       2.80582450       8.09827537       1.13623013      -0.00529906       0.00377016       0.00021984 
Al       0.00042306       3.23916343       5.68107910      -0.00549906       0.00256016      -0.00028016 
Al       5.61092677       3.23934252       5.68106989      -0.00219906       0.00209016       0.00023984 
Al      -2.80467369       8.09808646       5.68107906      -0.00332906       0.00232016      -0.00012016 
Al       2.80583001       8.09826555       5.68106984      -0.00430906       0.00346016      -0.00021016 
Al       2.80497246       1.61995791       3.40864559      -0.00192906      -0.00154984       0.00955984 
Al       8.41547616       1.62013700       3.40864546       0.00457094      -0.00186984      -0.00050016 
Al      -0.00012430       6.47888094       3.40864554       0.00317094      -0.00183984      -0.00066016 
Al       5.61037941       6.47906003       3.40864542       0.00589094      -0.00211984       0.00032984 
Al       2.80497236       1.61995781       7.95349439      -0.00135906      -0.00120984      -0.00954016 
Al       8.41546484       1.62013690       7.95349426       0.00395094      -0.00154984       0.00051984 
Al      -0.00012440       6.47888084       7.95349434       0.00295094      -0.00178984       0.00067984 
Al       5.61037931       6.47905993       7.95349422       0.00594094      -0.00267984      -0.00034016 
