64
Lattice="11.221007406739036 0.0003581763943235956 -2.5131323619446874e-07 -5.610193513512995 9.717846055813132 -9.1990921583057e-08 -2.0343678424995805e-07 -2.0344042297106932e-07 9.089697596676826" Properties=species:S:1:pos:R:3:force:R:3 virial="4.021675560174121 -0.004250163613657702 -9.279833217593236e-05 -0.004250163613657702 4.039468093729988 0.0002598353300926106 -9.279833217593236e-05 0.0002598353300926106 8.212336883240615" energy=-78270.9733935 pbc="T T T"
Ti       2.80512989       3.21069179       1.13623024       0.01007063      -0.02220031       0.00062000 
Ti       8.41563359       3.21087087       1.13623012       0.00539063      -0.00611031       0.00102000 
Ti       0.00003313       8.06961481       1.13623020       0.00218063      -0.03075031       0.00077000 
Ti       5.61053683       8.06979390       1.13623007       0.00460063      -0.00899031       0.00058000 
Ti       2.80512978       3.21069168       5.68106995       0.00112063      -0.01078031      -0.00064000 
Ti       8.41563349       3.21087077       5.68106983       0.00549063      -0.00672031      -0.00100000 
Ti       0.00003303       8.06961471       5.68106991       0.00094063      -0.01356031      -0.00076000 
Ti       5.61053673       8.06979380       5.68106978       0.00526063      -0.00988031      -0.00060000 
Ti      -1.37760341       4.03475365       3.40864563       0.00651063      -0.00378031      -0.00033000 
Ti       4.23290029       4.03493274       3.40864550       0.01022063       0.00138969       0.00099000 
Ti      -4.18270017       8.89367668       3.40864558       0.00669063      -0.00690031      -0.00134000 
Ti       1.42780354       8.89385577       3.40864546       0.00958063      -0.00396031      -0.00129000 
Ti      -1.37760351       4.03475355       7.95349443       0.00716063      -0.00509031       0.00035000 
Ti       4.23290019       4.03493264       7.95349430       0.01109062       0.00084969      -0.00098000 
Ti      -4.18270027       8.89367658       7.95349438       0.00635063      -0.00561031       0.00132000 
Ti       1.42780343       8.89385567       7.95349426       0.00952063      -0.00359031       0.00128000 
Ti       1.37796181       4.03460838       3.40864557      -0.01532937      -0.00274031      -0.00324000 
Ti       6.98847674       4.03478747       3.40864544      -0.00416937       0.00035969      -0.00142000 
Ti      -1.42712372       8.89353141       3.40864552      -0.01205937      -0.01160031       0.00784000 
Ti       4.18337998       8.89371049       3.40864540      -0.00646937       0.00037969      -0.00027000 
Ti       1.37796171       4.03460828       7.95349437      -0.01520937      -0.00411031       0.00327000 
Ti       6.98847664       4.03478736       7.95349424      -0.00548937      -0.00005031       0.00135000 
Ti      -1.42712382       8.89353130       7.95349432      -0.01254937      -0.01109031      -0.00783000 
Ti       4.18337988       8.89371039       7.95349419      -0.00620937       0.00093969       0.00025000 
Ti       1.42742820       0.82450335       1.13623033       0.01131063      -0.00627031      -0.00011000 
Ti       7.03793190       0.82468244       1.13623020       0.02867063       0.00712969       0.00034000 
Ti      -1.37766856       5.68342638       1.13623028       0.00608063      -0.00387031       0.00174000 
Ti       4.23283515       5.68360547       1.13623016       0.01356062       0.00296969       0.00077000 
Ti       1.42743371       0.82449354       5.68107913       0.00533063      -0.00090031       0.00014000 
Ti       7.03793741       0.82467262       5.68106991       0.01473063       0.00328969      -0.00037000 
Ti      -1.37766305       5.68341656       5.68107908       0.00623063      -0.00255031      -0.00165000 
Ti       4.23283505       5.68360537       5.68106987       0.01403063       0.00366969      -0.00078000 
Ti       4.18802016       0.81570920       1.13623027      -0.05259938       0.07650969       0.00034000 
Ti       9.79352518       0.82454689       1.13623014      -0.00675937       0.00671969       0.00033000 
Ti       1.37792472       5.68329083       1.13623022      -0.01085937       0.00348969       0.00112000 
Ti       6.98842842       5.68346992       1.13623010      -0.00421937       0.00613969       0.00078000 
Ti       4.18302138       0.82436770       5.68107907      -0.01113937       0.00531969      -0.00033000 
Ti       9.79352508       0.82454679       5.68106985      -0.00685937       0.00688969      -0.00033000 
Ti       1.37792462       5.68329073       5.68106993      -0.01126937       0.00471969      -0.00110000 
Ti       6.98842832       5.68346981       5.68106980      -0.00582937       0.00482969      -0.00077000 
Ti       0.00029379       1.64845882       3.40864565      -0.00572937       0.01119969      -0.00067000 
Ti       5.61080872       1.64863791       3.40864553       0.00003063       0.00923969      -0.00064000 
Ti      -2.80479174       6.50738185       3.40864561      -0.00341937       0.00488969       0.00040000 
Ti       2.80571196       6.50756094       3.40864548      -0.00225937       0.00963969       0.00018000 
Ti       0.00029369       1.64845872       7.95349445      -0.00476937       0.00959969       0.00064000 
Ti       5.61080862       1.64863781       7.95349432       0.00005063       0.00938969       0.00063000 
Ti      -2.80479184       6.50738175       7.95349440      -0.00445937       0.00579969      -0.00037000 
Ti       2.80571186       6.50756083       7.95349428      -0.00211937       0.01002969      -0.00022000 
Al       0.00042316       3.23916354       1.13623031      -0.00399937       0.00254969       0.00027000 
Al       5.61092687       3.23934262       1.13623018      -0.00831937      -0.00464031       0.00014000 
Al      -2.80467359       8.09808656       1.13623026      -0.00700937      -0.00628031       0.00024000 
Al       2.80582450       8.09827537       1.13623013      -0.00225937       0.00211969       0.00035000 
Al       0.00042306       3.23916343       5.68107910      -0.00621937       0.00257969      -0.00026000 
Al       5.61092677       3.23934252       5.68106989      -0.00293937       0.00380969      -0.00015000 
Al      -2.80467369       8.09808646       5.68107906      -0.00580937       0.00095969      -0.00024000 
Al       2.80583001       8.09826555       5.68106984      -0.00272937       0.00241969      -0.00033000 
Al       2.80497246       1.61995791       3.40864559       0.00916063      -0.00615031      -0.00968000 
Al       8.41547616       1.62013700       3.40864546       0.00541063      -0.00110031       0.00049000 
Al      -0.00012430       6.47888094       3.40864554       0.00328063      -0.00449031       0.00050000 
Al       5.61037941       6.47906003       3.40864542       0.00550063      -0.00213031       0.00002000 
Al       2.80497236       1.61995781       7.95349439       0.00909063      -0.00626031       0.00969000 
Al       8.41546484       1.62013690       7.95349426       0.00545063      -0.00118031      -0.00051000 
Al      -0.00012440       6.47888084       7.95349434       0.00325063      -0.00434031      -0.00050000 
Al       5.61037931       6.47905993       7.95349422       0.00571063      -0.00214031      -0.00004000 
