64
Lattice="11.221007406739036 0.0003581763943235956 -2.5131323619446874e-07 -5.610193513512995 9.717846055813132 -9.1990921583057e-08 -2.0343678424995805e-07 -2.0344042297106932e-07 9.089697596676826" Properties=species:S:1:pos:R:3:force:R:3 virial="4.023605765483381 -0.009304579439506817 -0.0007980656567130183 -0.009304579439506817 4.040173361054523 0.0008104387676698094 -0.0007980656567130183 0.0008104387676698094 8.23394652152665" energy=-78271.0062273 pbc="T T T"
Ti       2.80512989       3.21069179       1.13623024       0.01531969      -0.02184016      -0.00196969 
Ti       8.41563359       3.21087087       1.13623012      -0.00049031      -0.01058016      -0.00164969 
Ti       0.00003313       8.06961481       1.13623020       0.00748969      -0.02437016      -0.00259969 
Ti       5.61053683       8.06979390       1.13623007      -0.00023031      -0.00807016      -0.00025969 
Ti       2.80512978       3.21069168       5.68106995       0.00695969      -0.01115016       0.00220031 
Ti       8.41563349       3.21087077       5.68106983      -0.00065031      -0.01470016       0.00159031 
Ti       0.00003303       8.06961471       5.68106991       0.00676969      -0.00522016       0.00235031 
Ti       5.61053673       8.06979380       5.68106978       0.00045969      -0.00752016       0.00033031 
Ti      -1.37760341       4.03475365       3.40864563       0.00815969      -0.00685016      -0.00352969 
Ti       4.23290029       4.03493274       3.40864550       0.00758969      -0.00177016      -0.00134969 
Ti      -4.18270017       8.89367668       3.40864558       0.00604969      -0.00464016      -0.00284969 
Ti       1.42780354       8.89385577       3.40864546       0.00902969      -0.00208016       0.00006031 
Ti      -1.37760351       4.03475355       7.95349443       0.00890969      -0.00656016       0.00334031 
Ti       4.23290019       4.03493264       7.95349430       0.00578969      -0.00155016       0.00132031 
Ti      -4.18270027       8.89367658       7.95349438       0.00687969      -0.00399016       0.00302031 
Ti       1.42780343       8.89385567       7.95349426       0.00848969      -0.00323016       0.00002031 
Ti       1.37796181       4.03460838       3.40864557      -0.00506031      -0.00466016      -0.00464969 
Ti       6.98847674       4.03478747       3.40864544      -0.01304031      -0.00366016      -0.00447969 
Ti      -1.42712372       8.89353141       3.40864552      -0.00819031      -0.00556016       0.00827031 
Ti       4.18337998       8.89371049       3.40864540      -0.01118031      -0.00206016      -0.00182969 
Ti       1.37796171       4.03460828       7.95349437      -0.00451031      -0.00252016       0.00493031 
Ti       6.98847664       4.03478736       7.95349424      -0.01261031      -0.00504016       0.00444031 
Ti      -1.42712382       8.89353130       7.95349432      -0.00587031      -0.00460016      -0.00826969 
Ti       4.18337988       8.89371039       7.95349419      -0.01422031      -0.00369016       0.00174031 
Ti       1.42742820       0.82450335       1.13623033       0.01779969      -0.00307016      -0.00083969 
Ti       7.03793190       0.82468244       1.13623020       0.02404969       0.00305984      -0.00252969 
Ti      -1.37766856       5.68342638       1.13623028       0.00909969       0.00095984      -0.00192969 
Ti       4.23283515       5.68360547       1.13623016       0.00743969      -0.00009016      -0.00225969 
Ti       1.42743371       0.82449354       5.68107913       0.01309969       0.00175984       0.00099031 
Ti       7.03793741       0.82467262       5.68106991       0.00853969      -0.00219016       0.00225031 
Ti      -1.37766305       5.68341656       5.68107908       0.01305969       0.00490984       0.00177031 
Ti       4.23283505       5.68360537       5.68106987       0.00718969       0.00170984       0.00221031 
Ti       4.18802016       0.81570920       1.13623027      -0.05036031       0.08064984      -0.00225969 
Ti       9.79352518       0.82454689       1.13623014      -0.00893031       0.00174984      -0.00124969 
Ti       1.37792472       5.68329083       1.13623022      -0.00352031       0.00551984      -0.00367969 
Ti       6.98842842       5.68346992       1.13623010      -0.00917031       0.00480984      -0.00028969 
Ti       4.18302138       0.82436770       5.68107907      -0.00613031       0.00785984       0.00229031 
Ti       9.79352508       0.82454679       5.68106985      -0.01082031       0.00153984       0.00108031 
Ti       1.37792462       5.68329073       5.68106993      -0.00481031       0.00854984       0.00351031 
Ti       6.98842832       5.68346981       5.68106980      -0.01227031       0.00511984       0.00044031 
Ti       0.00029379       1.64845882       3.40864565      -0.00216031       0.00498984      -0.00259969 
Ti       5.61080872       1.64863791       3.40864553      -0.00197031       0.00625984      -0.00001969 
Ti      -2.80479174       6.50738185       3.40864561      -0.00571031       0.01044984      -0.00283969 
Ti       2.80571196       6.50756094       3.40864548      -0.00190031       0.01191984      -0.00163969 
Ti       0.00029369       1.64845872       7.95349445      -0.00234031       0.00748984       0.00277031 
Ti       5.61080862       1.64863781       7.95349432      -0.00210031       0.00456984       0.00002031 
Ti      -2.80479184       6.50738175       7.95349440      -0.00412031       0.00991984       0.00290031 
Ti       2.80571186       6.50756083       7.95349428      -0.00363031       0.01062984       0.00151031 
Al       0.00042316       3.23916354       1.13623031      -0.00174031       0.00179984      -0.00082969 
Al       5.61092687       3.23934262       1.13623018      -0.00984031      -0.00565016      -0.00023969 
Al      -2.80467359       8.09808656       1.13623026      -0.00648031      -0.00497016      -0.00007969 
Al       2.80582450       8.09827537       1.13623013      -0.00354031       0.00216984      -0.00044969 
Al       0.00042306       3.23916343       5.68107910      -0.00343031       0.00170984       0.00072031 
Al       5.61092677       3.23934252       5.68106989      -0.00498031       0.00202984       0.00024031 
Al      -2.80467369       8.09808646       5.68107906      -0.00493031       0.00333984       0.00017031 
Al       2.80583001       8.09826555       5.68106984      -0.00463031       0.00288984       0.00037031 
Al       2.80497246       1.61995791       3.40864559       0.01084969      -0.00556016      -0.00967969 
Al       8.41547616       1.62013700       3.40864546       0.00384969      -0.00351016       0.00005031 
Al      -0.00012430       6.47888094       3.40864554       0.00503969      -0.00204016      -0.00005969 
Al       5.61037941       6.47906003       3.40864542       0.00395969      -0.00218016      -0.00098969 
Al       2.80497236       1.61995781       7.95349439       0.01089969      -0.00529016       0.00976031 
Al       8.41546484       1.62013690       7.95349426       0.00399969      -0.00319016       0.00002031 
Al      -0.00012440       6.47888084       7.95349434       0.00524969      -0.00237016       0.00020031 
Al       5.61037931       6.47905993       7.95349422       0.00354969      -0.00234016       0.00101031 
