64
Lattice="11.221007406739036 0.0003581763943235956 -2.5131323619446874e-07 -5.610193513512995 9.717846055813132 -9.1990921583057e-08 -2.0343678424995805e-07 -2.0344042297106932e-07 9.089697596676826" Properties=species:S:1:pos:R:3:force:R:3 virial="4.037160508536545 -0.04597229375995689 0.0005072975492284303 -0.04597229375995689 3.9997132882258177 0.029911995738042197 0.0005072975492284303 0.029911995738042197 8.239557727345558" energy=-78270.9734428 pbc="T T T"
Ti       2.79735373       3.21069154       1.12993108       0.06797937      -0.00665969       0.05583016 
Ti       8.41563359       3.21087087       1.13623012       0.00731938      -0.00913969      -0.00135984 
Ti       0.00003313       8.06961481       1.13623020       0.00604938      -0.01200969       0.00010016 
Ti       5.61053683       8.06979390       1.13623007       0.00169938      -0.00964969       0.00023016 
Ti       2.80512978       3.21069168       5.68106995       0.00463938      -0.00768969      -0.01306984 
Ti       8.41563349       3.21087077       5.68106983       0.00445938      -0.00883969      -0.00150984 
Ti       0.00003303       8.06961471       5.68106991       0.00596937      -0.01191969      -0.00102984 
Ti       5.61053673       8.06979380       5.68106978       0.00261938      -0.00968969      -0.00126984 
Ti      -1.37760341       4.03475365       3.40864563       0.01123938      -0.00260969       0.00106016 
Ti       4.23290029       4.03493274       3.40864550      -0.00360062      -0.00806969      -0.01212984 
Ti      -4.18270017       8.89367668       3.40864558       0.00838938      -0.00264969       0.00116016 
Ti       1.42780354       8.89385577       3.40864546       0.00941938      -0.00655969       0.00020016 
Ti      -1.37760351       4.03475355       7.95349443       0.00809938      -0.00427969      -0.00106984 
Ti       4.23290019       4.03493264       7.95349430       0.00677937      -0.00275969       0.00251016 
Ti      -4.18270027       8.89367658       7.95349438       0.00748938      -0.00493969      -0.00119984 
Ti       1.42780343       8.89385567       7.95349426       0.00939938      -0.00646969       0.00089016 
Ti       1.37796181       4.03460838       3.40864557      -0.00861062      -0.00026969       0.00000016 
Ti       6.98847674       4.03478747       3.40864544      -0.01369062      -0.00120969      -0.00153984 
Ti      -1.42712372       8.89353141       3.40864552      -0.00919062      -0.00037969      -0.00256984 
Ti       4.18337998       8.89371049       3.40864540      -0.01137062      -0.00243969      -0.00061984 
Ti       1.37796171       4.03460828       7.95349437      -0.01934063       0.00515031      -0.01020984 
Ti       6.98847664       4.03478736       7.95349424      -0.01068062      -0.00311969       0.00159016 
Ti      -1.42712382       8.89353130       7.95349432      -0.00758062      -0.00218969       0.00255016 
Ti       4.18337988       8.89371039       7.95349419      -0.01173062      -0.00242969       0.00167016 
Ti       1.42742820       0.82450335       1.13623033       0.00317938      -0.00114969      -0.00431984 
Ti       7.03793190       0.82468244       1.13623020       0.00788938       0.00125031       0.00051016 
Ti      -1.37766856       5.68342638       1.13623028       0.01206938       0.00154031       0.00093016 
Ti       4.23283515       5.68360547       1.13623016       0.00192938       0.00220031      -0.00016984 
Ti       1.42743371       0.82449354       5.68107913       0.00886938       0.00366031       0.00004016 
Ti       7.03793741       0.82467262       5.68106991       0.00889938       0.00067031      -0.00056984 
Ti      -1.37766305       5.68341656       5.68107908       0.01137938       0.00071031      -0.00104984 
Ti       4.23283505       5.68360537       5.68106987       0.00583937       0.00135031       0.00012016 
Ti       4.18302148       0.82436780       1.13623027      -0.01529062       0.01211031      -0.00458984 
Ti       9.79352518       0.82454689       1.13623014      -0.00885062       0.00375031       0.00056016 
Ti       1.37792472       5.68329083       1.13623022      -0.01120062       0.00314031      -0.00000984 
Ti       6.98842842       5.68346992       1.13623010      -0.01093062       0.00366031       0.00115016 
Ti       4.18302138       0.82436770       5.68107907      -0.00955062       0.00711031       0.00036016 
Ti       9.79352508       0.82454679       5.68106985      -0.00852062       0.00503031      -0.00063984 
Ti       1.37792462       5.68329073       5.68106993      -0.00937062       0.00392031      -0.00003984 
Ti       6.98842832       5.68346981       5.68106980      -0.00956062       0.00419031      -0.00125984 
Ti       0.00029379       1.64845882       3.40864565      -0.00172062       0.01250031      -0.00103984 
Ti       5.61080872       1.64863791       3.40864553      -0.00036062       0.00863031       0.00226016 
Ti      -2.80479174       6.50738185       3.40864561      -0.00099062       0.00659031      -0.00029984 
Ti       2.80571196       6.50756094       3.40864548      -0.00424062       0.00727031      -0.00072984 
Ti       0.00029369       1.64845872       7.95349445       0.00060938       0.01228031       0.00351016 
Ti       5.61080862       1.64863781       7.95349432      -0.00320062       0.00783031       0.00017016 
Ti      -2.80479184       6.50738175       7.95349440      -0.00068062       0.00783031      -0.00024984 
Ti       2.80571186       6.50756083       7.95349428      -0.00422062       0.00706031       0.00237016 
Al       0.00042316       3.23916354       1.13623031      -0.01771063       0.00521031      -0.00074984 
Al       5.61092687       3.23934262       1.13623018      -0.01822063       0.00015031      -0.00069984 
Al      -2.80467359       8.09808656       1.13623026      -0.00260062       0.00239031      -0.00033984 
Al       2.80582450       8.09827537       1.13623013      -0.00474063       0.00194031       0.00045016 
Al       0.00042306       3.23916343       5.68107910      -0.00453062       0.00282031      -0.00080984 
Al       5.61092677       3.23934252       5.68106989      -0.00539062       0.00261031      -0.00092984 
Al      -2.80467369       8.09808646       5.68107906      -0.00412063       0.00207031      -0.00019984 
Al       2.80583001       8.09826555       5.68106984      -0.00480062       0.00196031       0.00008016 
Al       2.80497246       1.61995791       3.40864559       0.00450938       0.00459031      -0.00753984 
Al       8.41547616       1.62013700       3.40864546       0.00443938      -0.00276969       0.00019016 
Al      -0.00012430       6.47888094       3.40864554       0.00493938      -0.00355969      -0.00022984 
Al       5.61037941       6.47906003       3.40864542       0.00325938      -0.00326969      -0.00022984 
Al       2.80497236       1.61995781       7.95349439       0.00468937      -0.00819969      -0.00712984 
Al       8.41546484       1.62013690       7.95349426       0.00443938      -0.00294969       0.00036016 
Al      -0.00012440       6.47888084       7.95349434       0.00453938      -0.00277969       0.00030016 
Al       5.61037931       6.47905993       7.95349422       0.00356938      -0.00252969       0.00025016 
