64
Lattice="11.221007406739036 0.0003581763943235956 -2.5131323619446874e-07 -5.610193513512995 9.717846055813132 -9.1990921583057e-08 -2.0343678424995805e-07 -2.0344042297106932e-07 9.089697596676826" Properties=species:S:1:pos:R:3:force:R:3 virial="4.0308625950595385 -0.04409776745000306 0.0005011109937500348 -0.04409776745000306 3.9918749224346906 0.029930555404477387 0.0005011109937500348 0.029930555404477387 8.240015532450958" energy=-78270.9734392 pbc="T T T"
Ti       2.80512989       3.21069179       1.13623024       0.00245000      -0.00871031      -0.00032031 
Ti       8.41563359       3.21087087       1.13623012       0.00046000      -0.00935031      -0.00315031 
Ti       0.00003313       8.06961481       1.13623020       0.00478000      -0.00991031      -0.00166031 
Ti       5.61053683       8.06979390       1.13623007       0.00080000      -0.00835031      -0.00226031 
Ti       2.80512978       3.21069168       5.68106995      -0.00081000      -0.00988031      -0.00216031 
Ti       8.41563349       3.21087077       5.68106983       0.00271000      -0.00817031       0.00063969 
Ti       0.00003303       8.06961471       5.68106991       0.00437000      -0.01049031       0.00218969 
Ti       5.61053673       8.06979380       5.68106978       0.00201000      -0.00842031       0.00090969 
Ti      -1.37760341       4.03475365       3.40864563       0.01499000      -0.01233031       0.00506969 
Ti       4.23290029       4.03493274       3.40864550       0.00957000      -0.00567031      -0.00115031 
Ti      -4.18270017       8.89367668       3.40864558       0.01188000      -0.00166031       0.00054969 
Ti       1.42780354       8.89385577       3.40864546       0.01053000      -0.00155031      -0.00130031 
Ti      -1.37760351       4.03475355       7.95349443       0.00831000      -0.00712031      -0.00092031 
Ti       4.23290019       4.03493264       7.95349430       0.00887000      -0.00481031       0.00124969 
Ti      -4.18270027       8.89367658       7.95349438       0.00840000      -0.00264031      -0.00059031 
Ti       1.42780343       8.89385567       7.95349426       0.01020000      -0.00359031       0.00152969 
Ti       1.37796181       4.03460838       3.40864557      -0.00455000       0.00307969       0.00395969 
Ti       6.98847674       4.03478747       3.40864544      -0.00806000      -0.00551031       0.00059969 
Ti      -1.42712372       8.89353141       3.40864552      -0.00822000      -0.00166031      -0.00053031 
Ti       4.18337998       8.89371049       3.40864540      -0.00582000       0.00009969      -0.00049031 
Ti       1.37796171       4.03460828       7.95349437      -0.00880000      -0.00049031       0.00028969 
Ti       6.98847664       4.03478736       7.95349424      -0.00934000      -0.00350031      -0.00044031 
Ti      -1.42712382       8.89353130       7.95349432      -0.00771000      -0.00117031       0.00050969 
Ti       4.18337988       8.89371039       7.95349419      -0.00983000      -0.00047031       0.00059969 
Ti       1.42742820       0.82450335       1.13623033       0.00797000       0.00472969      -0.00188031 
Ti       7.03793190       0.82468244       1.13623020       0.01389000       0.00189969       0.00009969 
Ti      -1.37766856       5.68342638       1.13623028       0.01219000      -0.00189031       0.00168969 
Ti       4.23283515       5.68360547       1.13623016       0.00790000       0.00032969      -0.00262031 
Ti       1.42743371       0.82449354       5.68107913       0.01807000      -0.00092031       0.01199969 
Ti       7.03793741       0.82467262       5.68106991       0.01108000       0.00477969      -0.00010031 
Ti      -1.37766305       5.68341656       5.68107908       0.01085000      -0.00045031      -0.00175031 
Ti       4.23283505       5.68360537       5.68106987       0.00808000       0.00038969       0.00128969 
Ti       4.18302148       0.82436780       1.13623027      -0.00790000       0.00664969      -0.00224031 
Ti       9.79352518       0.82454689       1.13623014       0.00066000       0.00987969       0.01056969 
Ti       1.37792472       5.68329083       1.13623022      -0.00882000       0.00246969      -0.00311031 
Ti       6.98842842       5.68346992       1.13623010      -0.00932000       0.00293969      -0.00185031 
Ti       4.18302138       0.82436770       5.68107907      -0.00534000       0.00732969       0.00217969 
Ti       9.79352508       0.82454679       5.68106985      -0.00884000       0.00662969      -0.00095031 
Ti       1.37792462       5.68329073       5.68106993      -0.00710000       0.00528969       0.00302969 
Ti       6.98842832       5.68346981       5.68106980      -0.00933000       0.00133969       0.00081969 
Ti       0.00806995       1.64845907       3.41494481      -0.07065000       0.00985969      -0.05476031 
Ti       5.61080872       1.64863791       3.40864553      -0.00442000       0.01027969       0.00155969 
Ti      -2.80479174       6.50738185       3.40864561      -0.00276000       0.00717969      -0.00008031 
Ti       2.80571196       6.50756094       3.40864548      -0.00505000       0.00753969       0.00000969 
Ti       0.00029369       1.64845872       7.95349445      -0.00681000       0.00859969       0.01201969 
Ti       5.61080862       1.64863781       7.95349432      -0.00138000       0.01015969       0.00131969 
Ti      -2.80479184       6.50738175       7.95349440      -0.00370000       0.00819969       0.00111969 
Ti       2.80571186       6.50756083       7.95349428      -0.00519000       0.00855969       0.00101969 
Al       0.00042316       3.23916354       1.13623031      -0.00470000      -0.00406031       0.00744969 
Al       5.61092687       3.23934262       1.13623018      -0.00419000       0.00202969      -0.00065031 
Al      -2.80467359       8.09808656       1.13623026      -0.00453000       0.00287969      -0.00065031 
Al       2.80582450       8.09827537       1.13623013      -0.00346000       0.00353969      -0.00112031 
Al       0.00042306       3.23916343       5.68107910      -0.00529000       0.00864969       0.00718969 
Al       5.61092677       3.23934252       5.68106989      -0.00336000       0.00256969       0.00009969 
Al      -2.80467369       8.09808646       5.68107906      -0.00381000       0.00240969       0.00057969 
Al       2.80583001       8.09826555       5.68106984      -0.00439000       0.00211969       0.00123969 
Al       2.80497246       1.61995791       3.40864559       0.01762000      -0.00327031       0.00062969 
Al       8.41547616       1.62013700       3.40864546       0.01842000       0.00087969       0.00092969 
Al      -0.00012430       6.47888094       3.40864554       0.00347000      -0.00418031       0.00027969 
Al       5.61037941       6.47906003       3.40864542       0.00405000      -0.00317031      -0.00060031 
Al       2.80497236       1.61995781       7.95349439       0.00457000      -0.00132031       0.00084969 
Al       8.41546484       1.62013690       7.95349426       0.00488000      -0.00254031       0.00082969 
Al      -0.00012440       6.47888084       7.95349434       0.00603000      -0.00295031       0.00026969 
Al       5.61037931       6.47905993       7.95349422       0.00342000      -0.00308031       0.00016969 
