64
Lattice="11.221007406739036 0.0003581763943235956 -2.5131323619446874e-07 -5.610193513512995 9.717846055813132 -9.1990921583057e-08 -2.0343678424995805e-07 -2.0344042297106932e-07 9.089697596676826" Properties=species:S:1:pos:R:3:force:R:3 virial="4.050257446484309 -0.05334666789020432 0.00022890255270063313 -0.05334666789020432 4.0185266034356175 0.029813010850387872 0.00022890255270063313 0.029813010850387872 8.248775695008366" energy=-78271.0062778 pbc="T T T"
Ti       2.80512989       3.21069179       1.13623024       0.00107000      -0.01029984       0.00067906 
Ti       8.41563359       3.21087087       1.13623012       0.00115000      -0.00746984      -0.00356094 
Ti       0.00003313       8.06961481       1.13623020       0.00299000      -0.00923984       0.00015906 
Ti       5.61053683       8.06979390       1.13623007       0.00333000      -0.00894984      -0.00122094 
Ti       2.80512978       3.21069168       5.68106995      -0.00173000      -0.01143984      -0.00313094 
Ti       8.41563349       3.21087077       5.68106983       0.00358000      -0.00661984       0.00108906 
Ti       0.00003303       8.06961471       5.68106991       0.00234000      -0.00985984       0.00031906 
Ti       5.61053673       8.06979380       5.68106978       0.00392000      -0.00856984      -0.00042094 
Ti      -1.37760341       4.03475365       3.40864563       0.01401000      -0.01067984       0.00506906 
Ti       4.23290029       4.03493274       3.40864550       0.00984000      -0.00160984      -0.00022094 
Ti      -4.18270017       8.89367668       3.40864558       0.00974000      -0.00547984       0.00112906 
Ti       1.42780354       8.89385577       3.40864546       0.01082000      -0.00305984      -0.00117094 
Ti      -1.37760351       4.03475355       7.95349443       0.00713000      -0.00616984      -0.00087094 
Ti       4.23290019       4.03493264       7.95349430       0.01001000      -0.00209984       0.00037906 
Ti      -4.18270027       8.89367658       7.95349438       0.00641000      -0.00619984      -0.00107094 
Ti       1.42780343       8.89385567       7.95349426       0.01086000      -0.00403984       0.00130906 
Ti       1.37796181       4.03460838       3.40864557      -0.00546000       0.00263016       0.00498906 
Ti       6.98847674       4.03478747       3.40864544      -0.00624000      -0.00041984       0.00036906 
Ti      -1.42712372       8.89353141       3.40864552      -0.01094000      -0.00527984      -0.00014094 
Ti       4.18337998       8.89371049       3.40864540      -0.00206000      -0.00240984       0.00059906 
Ti       1.37796171       4.03460828       7.95349437      -0.01142000      -0.00226984      -0.00070094 
Ti       6.98847664       4.03478736       7.95349424      -0.00626000       0.00080016      -0.00035094 
Ti      -1.42712382       8.89353130       7.95349432      -0.01140000      -0.00465984       0.00029906 
Ti       4.18337988       8.89371039       7.95349419      -0.00502000      -0.00177984      -0.00048094 
Ti       1.42742820       0.82450335       1.13623033       0.00626000      -0.00006984      -0.00133094 
Ti       7.03793190       0.82468244       1.13623020       0.01575000       0.00058016       0.00115906 
Ti      -1.37766856       5.68342638       1.13623028       0.00809000       0.00003016       0.00194906 
Ti       4.23283515       5.68360547       1.13623016       0.01216000       0.00496016      -0.00058094 
Ti       1.42743371       0.82449354       5.68107913       0.01730000      -0.00569984       0.01149906 
Ti       7.03793741       0.82467262       5.68106991       0.01250000       0.00340016      -0.00123094 
Ti      -1.37766305       5.68341656       5.68107908       0.00605000       0.00150016      -0.00186094 
Ti       4.23283505       5.68360537       5.68106987       0.01309000       0.00497016      -0.00049094 
Ti       4.18302148       0.82436780       1.13623027      -0.01050000       0.00261016      -0.00123094 
Ti       9.79352518       0.82454689       1.13623014       0.00201000       0.00817016       0.01061906 
Ti       1.37792472       5.68329083       1.13623022      -0.01001000       0.00465016      -0.00183094 
Ti       6.98842842       5.68346992       1.13623010      -0.00905000       0.00764016      -0.00140094 
Ti       4.18302138       0.82436770       5.68107907      -0.00715000       0.00435016       0.00120906 
Ti       9.79352508       0.82454679       5.68106985      -0.00769000       0.00327016      -0.00100094 
Ti       1.37792462       5.68329073       5.68106993      -0.00855000       0.00585016       0.00182906 
Ti       6.98842832       5.68346981       5.68106980      -0.00819000       0.00693016       0.00035906 
Ti       0.00806995       1.64845907       3.41494481      -0.06968000       0.00725016      -0.05477094 
Ti       5.61080872       1.64863791       3.40864553      -0.00407000       0.00871016       0.00265906 
Ti      -2.80479174       6.50738185       3.40864561      -0.00541000       0.00889016       0.00043906 
Ti       2.80571196       6.50756094       3.40864548      -0.00193000       0.00978016      -0.00029094 
Ti       0.00029369       1.64845872       7.95349445      -0.00671000       0.00693016       0.01190906 
Ti       5.61080862       1.64863781       7.95349432      -0.00087000       0.00948016       0.00037906 
Ti      -2.80479184       6.50738175       7.95349440      -0.00642000       0.00863016       0.00046906 
Ti       2.80571186       6.50756083       7.95349428      -0.00209000       0.01011016       0.00124906 
Al       0.00042316       3.23916354       1.13623031      -0.00521000      -0.00420984       0.00729906 
Al       5.61092687       3.23934262       1.13623018      -0.00354000       0.00345016      -0.00034094 
Al      -2.80467359       8.09808656       1.13623026      -0.00510000       0.00221016       0.00002906 
Al       2.80582450       8.09827537       1.13623013      -0.00298000       0.00354016      -0.00019094 
Al       0.00042306       3.23916343       5.68107910      -0.00530000       0.00857016       0.00744906 
Al       5.61092677       3.23934252       5.68106989      -0.00342000       0.00316016      -0.00021094 
Al      -2.80467369       8.09808646       5.68107906      -0.00467000       0.00169016      -0.00006094 
Al       2.80583001       8.09826555       5.68106984      -0.00323000       0.00277016       0.00014906 
Al       2.80497246       1.61995791       3.40864559       0.01730000      -0.00501984       0.00122906 
Al       8.41547616       1.62013700       3.40864546       0.01863000      -0.00024984       0.00098906 
Al      -0.00012430       6.47888094       3.40864554       0.00233000      -0.00251984       0.00030906 
Al       5.61037941       6.47906003       3.40864542       0.00506000      -0.00163984      -0.00037094 
Al       2.80497236       1.61995781       7.95349439       0.00388000      -0.00266984       0.00032906 
Al       8.41546484       1.62013690       7.95349426       0.00583000      -0.00255984       0.00060906 
Al      -0.00012440       6.47888084       7.95349434       0.00384000      -0.00248984       0.00020906 
Al       5.61037931       6.47905993       7.95349422       0.00502000      -0.00177984      -0.00018094 
