64
Lattice="11.221007406739036 0.0003581763943235956 -2.5131323619446874e-07 -5.610193513512995 9.717846055813132 -9.1990921583057e-08 -2.0343678424995805e-07 -2.0344042297106932e-07 9.089697596676826" Properties=species:S:1:pos:R:3:force:R:3 virial="4.055256183310853 -0.00801158934452216 -0.00011754455408951433 -0.00801158934452216 4.011993600850433 -0.03030793528865951 -0.00011754455408951433 -0.03030793528865951 8.231193504338766" energy=-78270.9734893 pbc="T T T"
Ti       2.80512989       3.21069179       1.13623024       0.00799016      -0.00984984       0.00043984 
Ti       8.41563359       3.21087087       1.13623012       0.00154016      -0.01187984       0.00412984 
Ti       0.00003313       8.06961481       1.13623020       0.00423016      -0.00454984       0.00223984 
Ti       5.61053683       8.06979390       1.13623007       0.00281016      -0.00971984       0.00150984 
Ti       2.80512978       3.21069168       5.68106995       0.00953016      -0.00961984       0.00202984 
Ti       8.41563349       3.21087077       5.68106983       0.00086016      -0.01513984      -0.00158016 
Ti       0.00003303       8.06961471       5.68106991       0.00628016      -0.00564984      -0.00276016 
Ti       5.61053673       8.06979380       5.68106978       0.00045016      -0.00860984       0.00022984 
Ti      -1.37760341       4.03475365       3.40864563       0.00089016       0.00081016      -0.00540016 
Ti       4.23290029       4.03493274       3.40864550       0.00950016      -0.00633984      -0.00197016 
Ti      -4.18270017       8.89367668       3.40864558       0.00530016      -0.00709984      -0.00263016 
Ti       1.42780354       8.89385577       3.40864546       0.00681016      -0.00403984       0.00089984 
Ti      -1.37760351       4.03475355       7.95349443       0.00773016      -0.00445984       0.00118984 
Ti       4.23290019       4.03493264       7.95349430       0.00978016      -0.00500984       0.00188984 
Ti      -4.18270027       8.89367658       7.95349438       0.00713016      -0.00614984       0.00257984 
Ti       1.42780343       8.89385567       7.95349426       0.00838016      -0.00388984      -0.00099016 
Ti       1.37796181       4.03460838       3.40864557      -0.01364984      -0.00577984      -0.00641016 
Ti       6.98847674       4.03478747       3.40864544      -0.01286984      -0.00107984      -0.00236016 
Ti      -1.42712372       8.89353141       3.40864552      -0.00614984       0.00101016      -0.00173016 
Ti       4.18337998       8.89371049       3.40864540      -0.01755984      -0.00141984      -0.00120016 
Ti       1.37796171       4.03460828       7.95349437      -0.00785984      -0.00061984       0.00215984 
Ti       6.98847664       4.03478736       7.95349424      -0.01223984      -0.00183984       0.00227984 
Ti      -1.42712382       8.89353130       7.95349432      -0.00755984       0.00065016       0.00146984 
Ti       4.18337988       8.89371039       7.95349419      -0.01275984      -0.00252984       0.00108984 
Ti       1.42742820       0.82450335       1.13623033       0.01405016      -0.00101984       0.00229984 
Ti       7.03793190       0.82468244       1.13623020       0.00349016       0.00023016       0.00087984 
Ti      -1.37766856       5.68342638       1.13623028       0.00684016       0.00640016      -0.00033016 
Ti       4.23283515       5.68360547       1.13623016       0.01162016       0.00202016       0.00136984 
Ti       1.42743371       0.82449354       5.68107913       0.00027016       0.00407016      -0.01190016 
Ti       7.03793741       0.82467262       5.68106991       0.00919016      -0.00220984      -0.00084016 
Ti      -1.37766305       5.68341656       5.68107908       0.01113016       0.00401016       0.00034984 
Ti       4.23283505       5.68360537       5.68106987       0.00877016       0.00289016      -0.00024016 
Ti       4.18302148       0.82436780       1.13623027      -0.00503984       0.00495016       0.00313984 
Ti       9.79352518       0.82454689       1.13623014      -0.02348984      -0.00304984      -0.01024016 
Ti       1.37792472       5.68329083       1.13623022      -0.00756984       0.00935016       0.00263984 
Ti       6.98842842       5.68346992       1.13623010      -0.00896984       0.00493016       0.00218984 
Ti       4.18302138       0.82436770       5.68107907      -0.00724984       0.00178016      -0.00318016 
Ti       9.79352508       0.82454679       5.68106985      -0.01308984       0.00273016       0.00004984 
Ti       1.37792462       5.68329073       5.68106993      -0.00933984       0.00919016      -0.00265016 
Ti       6.98842832       5.68346981       5.68106980      -0.01006984       0.00493016      -0.00115016 
Ti      -0.00747114       1.64845857       3.40235558       0.06101016       0.00646016       0.05525984 
Ti       5.61080872       1.64863791       3.40864553       0.00097016       0.00550016      -0.00422016 
Ti      -2.80479174       6.50738185       3.40864561      -0.00350984       0.01008016      -0.00252016 
Ti       2.80571196       6.50756094       3.40864548      -0.00237984       0.01306016       0.00022984 
Ti       0.00029369       1.64845872       7.95349445      -0.00185984       0.00724016      -0.01248016 
Ti       5.61080862       1.64863781       7.95349432      -0.00230984       0.00692016       0.00111984 
Ti      -2.80479184       6.50738175       7.95349440      -0.00377984       0.01037016       0.00152984 
Ti       2.80571186       6.50756083       7.95349428      -0.00140984       0.01188016      -0.00128016 
Al       0.00042316       3.23916354       1.13623031      -0.00349984       0.00903016      -0.00725016 
Al       5.61092687       3.23934262       1.13623018      -0.00390984       0.00225016       0.00061984 
Al      -2.80467359       8.09808656       1.13623026      -0.00408984       0.00225016       0.00045984 
Al       2.80582450       8.09827537       1.13623013      -0.00460984       0.00237016       0.00036984 
Al       0.00042306       3.23916343       5.68107910      -0.00407984      -0.00405984      -0.00751016 
Al       5.61092677       3.23934252       5.68106989      -0.00349984       0.00238016      -0.00005016 
Al      -2.80467369       8.09808646       5.68107906      -0.00423984       0.00307016      -0.00037016 
Al       2.80583001       8.09826555       5.68106984      -0.00443984       0.00320016      -0.00027016 
Al       2.80497246       1.61995791       3.40864559      -0.00846984      -0.00053984      -0.00175016 
Al       8.41547616       1.62013700       3.40864546      -0.00996984      -0.00517984      -0.00090016 
Al      -0.00012430       6.47888094       3.40864554       0.00566016      -0.00192984      -0.00046016 
Al       5.61037941       6.47906003       3.40864542       0.00374016      -0.00262984      -0.00010016 
Al       2.80497236       1.61995781       7.95349439       0.00451016      -0.00294984       0.00020984 
Al       8.41546484       1.62013690       7.95349426       0.00315016      -0.00282984      -0.00064016 
Al      -0.00012440       6.47888084       7.95349434       0.00437016      -0.00195984      -0.00008016 
Al       5.61037931       6.47905993       7.95349422       0.00354016      -0.00237984       0.00058984 
