64
Lattice="11.221007406739036 0.0003581763943235956 -2.5131323619446874e-07 -5.610193513512995 9.717846055813132 -9.1990921583057e-08 -2.0343678424995805e-07 -2.0344042297106932e-07 9.089697596676826" Properties=species:S:1:pos:R:3:force:R:3 virial="4.056326457408614 -0.02495656479984741 0.00016703699791667824 -0.02495656479984741 4.0068896925807564 -0.02934283263402981 0.00016703699791667824 -0.02934283263402981 8.256236680915311" energy=-78271.0063329 pbc="T T T"
Ti       2.80512989       3.21069179       1.13623024       0.00168016      -0.00647047       0.00007000 
Ti       8.41563359       3.21087087       1.13623012       0.00677016      -0.01015047       0.00411000 
Ti       0.00003313       8.06961481       1.13623020       0.00514016      -0.01120047      -0.00005000 
Ti       5.61053683       8.06979390       1.13623007       0.00479016      -0.00902047       0.00095000 
Ti       2.80512978       3.21069168       5.68106995       0.00621016      -0.00887047       0.00238000 
Ti       8.41563349       3.21087077       5.68106983       0.00268016      -0.01015047      -0.00167000 
Ti       0.00003303       8.06961471       5.68106991       0.00421016      -0.00805047      -0.00047000 
Ti       5.61053673       8.06979380       5.68106978       0.00544016      -0.01034047       0.00073000 
Ti      -1.37760341       4.03475365       3.40864563      -0.00058984       0.00025953      -0.00518000 
Ti       4.23290029       4.03493274       3.40864550       0.01012016      -0.00590047       0.00033000 
Ti      -4.18270017       8.89367668       3.40864558       0.00291016      -0.00710047      -0.00031000 
Ti       1.42780354       8.89385577       3.40864546       0.00854016      -0.00323047      -0.00034000 
Ti      -1.37760351       4.03475355       7.95349443       0.00677016      -0.00539047       0.00094000 
Ti       4.23290019       4.03493264       7.95349430       0.00942016      -0.00446047      -0.00041000 
Ti      -4.18270027       8.89367658       7.95349438       0.00565016      -0.00535047       0.00022000 
Ti       1.42780343       8.89385567       7.95349426       0.00912016      -0.00343047       0.00023000 
Ti       1.37796181       4.03460838       3.40864557      -0.01773984      -0.00683047      -0.00697000 
Ti       6.98847674       4.03478747       3.40864544      -0.00846984       0.00114953       0.00111000 
Ti      -1.42712372       8.89353141       3.40864552      -0.01131984      -0.00121047       0.00001000 
Ti       4.18337998       8.89371049       3.40864540      -0.01229984       0.00119953      -0.00131000 
Ti       1.37796171       4.03460828       7.95349437      -0.01207984      -0.00151047       0.00279000 
Ti       6.98847664       4.03478736       7.95349424      -0.00734984       0.00001953      -0.00125000 
Ti      -1.42712382       8.89353130       7.95349432      -0.01120984      -0.00178047      -0.00018000 
Ti       4.18337988       8.89371039       7.95349419      -0.00948984      -0.00010047       0.00126000 
Ti       1.42742820       0.82450335       1.13623033       0.00734016      -0.00050047       0.00106000 
Ti       7.03793190       0.82468244       1.13623020       0.00884016       0.00265953      -0.00087000 
Ti      -1.37766856       5.68342638       1.13623028       0.00801016       0.00134953      -0.00097000 
Ti       4.23283515       5.68360547       1.13623016       0.01107016       0.00293953       0.00063000 
Ti       1.42743371       0.82449354       5.68107913      -0.00175984       0.00448953      -0.01068000 
Ti       7.03793741       0.82467262       5.68106991       0.01132016       0.00260953       0.00090000 
Ti      -1.37766305       5.68341656       5.68107908       0.00633016      -0.00170047       0.00099000 
Ti       4.23283505       5.68360537       5.68106987       0.01339016       0.00259953       0.00040000 
Ti       4.18302148       0.82436780       1.13623027      -0.00793984       0.00630953       0.00205000 
Ti       9.79352518       0.82454689       1.13623014      -0.01923984       0.00115953      -0.01101000 
Ti       1.37792472       5.68329083       1.13623022      -0.00922984       0.00467953       0.00139000 
Ti       6.98842842       5.68346992       1.13623010      -0.00739984       0.00441953       0.00236000 
Ti       4.18302138       0.82436770       5.68107907      -0.01100984       0.00527953      -0.00205000 
Ti       9.79352508       0.82454679       5.68106985      -0.00922984       0.00749953       0.00081000 
Ti       1.37792462       5.68329073       5.68106993      -0.01005984       0.00246953      -0.00139000 
Ti       6.98842832       5.68346981       5.68106980      -0.00811984       0.00367953      -0.00130000 
Ti      -0.00747114       1.64845857       3.40235558       0.06047016       0.00887953       0.05485000 
Ti       5.61080872       1.64863791       3.40864553       0.00215016       0.01005953      -0.00122000 
Ti      -2.80479174       6.50738185       3.40864561      -0.00513984       0.00584953      -0.00041000 
Ti       2.80571196       6.50756094       3.40864548      -0.00273984       0.00948953      -0.00178000 
Ti       0.00029369       1.64845872       7.95349445      -0.00176984       0.00886953      -0.01215000 
Ti       5.61080862       1.64863781       7.95349432      -0.00028984       0.00898953      -0.00181000 
Ti      -2.80479184       6.50738175       7.95349440      -0.00479984       0.00695953      -0.00050000 
Ti       2.80571186       6.50756083       7.95349428      -0.00324984       0.00965953       0.00090000 
Al       0.00042316       3.23916354       1.13623031      -0.00384984       0.00935953      -0.00747000 
Al       5.61092687       3.23934262       1.13623018      -0.00304984       0.00272953       0.00081000 
Al      -2.80467359       8.09808656       1.13623026      -0.00499984       0.00130953       0.00019000 
Al       2.80582450       8.09827537       1.13623013      -0.00481984       0.00240953       0.00004000 
Al       0.00042306       3.23916343       5.68107910      -0.00441984      -0.00439047      -0.00728000 
Al       5.61092677       3.23934252       5.68106989      -0.00282984       0.00263953      -0.00026000 
Al      -2.80467369       8.09808646       5.68107906      -0.00568984       0.00257953      -0.00007000 
Al       2.80583001       8.09826555       5.68106984      -0.00377984       0.00376953      -0.00001000 
Al       2.80497246       1.61995791       3.40864559      -0.00949984      -0.00034047      -0.00070000 
Al       8.41547616       1.62013700       3.40864546      -0.00971984      -0.00425047      -0.00081000 
Al      -0.00012430       6.47888094       3.40864554       0.00545016      -0.00331047      -0.00144000 
Al       5.61037941       6.47906003       3.40864542       0.00505016      -0.00270047       0.00053000 
Al       2.80497236       1.61995781       7.95349439       0.00325016      -0.00300047      -0.00083000 
Al       8.41546484       1.62013690       7.95349426       0.00368016      -0.00193047      -0.00074000 
Al      -0.00012440       6.47888084       7.95349434       0.00441016      -0.00345047       0.00091000 
Al       5.61037931       6.47905993       7.95349422       0.00497016      -0.00220047      -0.00006000 
