64
Lattice="11.221007406739036 0.0003581763943235956 -2.5131323619446874e-07 -5.610193513512995 9.717846055813132 -9.1990921583057e-08 -2.0343678424995805e-07 -2.0344042297106932e-07 9.089697596676826" Properties=species:S:1:pos:R:3:force:R:3 virial="4.042548998358228 -0.02806221565000195 -0.00011754455408951433 -0.02806221565000195 4.086349811145268 6.1865554783954905e-06 -0.00011754455408951433 6.1865554783954905e-06 8.251831853414693" energy=-78271.0063919 pbc="T T T"
Ti       2.80512989       3.21069179       1.13623024       0.00168047      -0.01282031      -0.00139062 
Ti       8.41563359       3.21087087       1.13623012       0.00723047      -0.01407031       0.00141938 
Ti       0.00003313       8.06961481       1.13623020       0.00303047      -0.00836031      -0.00003062 
Ti       5.61053683       8.06979390       1.13623007       0.00521047      -0.00773031      -0.00175063 
Ti       2.80512978       3.21069168       5.68106995       0.00143047      -0.01267031       0.00137937 
Ti       8.41563349       3.21087077       5.68106983       0.00737047      -0.01345031      -0.00144063 
Ti       0.00003303       8.06961471       5.68106991       0.00285047      -0.00732031       0.00005938 
Ti       5.61053673       8.06979380       5.68106978       0.00548047      -0.00743031       0.00175938 
Ti      -1.37760341       4.03475365       3.40864563       0.00399047       0.00797969       0.00037938 
Ti       4.23290029       4.03493274       3.40864550       0.00753047      -0.00563031       0.00026938 
Ti      -4.18270017       8.89367668       3.40864558      -0.00882953       0.00712969       0.00072937 
Ti       1.42780354       8.89385577       3.40864546       0.01109047      -0.00504031       0.00054938 
Ti      -1.37760351       4.03475355       7.95349443       0.00983047      -0.00587031      -0.00044062 
Ti       4.23290019       4.03493264       7.95349430       0.00655047      -0.00331031      -0.00031062 
Ti      -4.18270027       8.89367658       7.95349438       0.00493047      -0.00264031      -0.00078062 
Ti       1.42780343       8.89385567       7.95349426       0.01116047      -0.00473031      -0.00050062 
Ti       1.37796181       4.03460838       3.40864557      -0.01238953       0.00346969       0.00028938 
Ti       6.98847674       4.03478747       3.40864544      -0.01061953       0.00064969       0.00041938 
Ti      -1.42712372       8.89353141       3.40864552      -0.01428953       0.00050969       0.00051937 
Ti       4.18337998       8.89371049       3.40864540       0.00382047       0.01146969       0.00046938 
Ti       1.37796171       4.03460828       7.95349437      -0.00974953      -0.00437031      -0.00028062 
Ti       6.98847664       4.03478736       7.95349424      -0.01072953       0.00145969      -0.00040062 
Ti      -1.42712382       8.89353130       7.95349432      -0.01446953      -0.00084031      -0.00046062 
Ti       4.18337988       8.89371039       7.95349419      -0.00608953       0.00048969      -0.00049062 
Ti       1.42742820       0.82450335       1.13623033       0.00199047       0.00375969       0.00773938 
Ti       7.03793190       0.82468244       1.13623020       0.01032047       0.00137969      -0.00106062 
Ti      -1.37766856       5.68342638       1.13623028       0.00673047       0.00300969      -0.00288063 
Ti       4.23283515       5.68360547       1.13623016       0.01061047       0.00356969      -0.00098062 
Ti       1.42743371       0.82449354       5.68107913       0.00190047       0.00336969      -0.00769062 
Ti       7.03793741       0.82467262       5.68106991       0.01026047       0.00077969       0.00108938 
Ti      -1.37766305       5.68341656       5.68107908       0.00643047       0.00325969       0.00288938 
Ti       4.23283505       5.68360537       5.68106987       0.01126047       0.00386969       0.00094938 
Ti       4.18302148       0.82436780       1.13623027      -0.01261953       0.00511969       0.00077938 
Ti       9.79352518       0.82454689       1.13623014      -0.00569953       0.00514969      -0.00002062 
Ti       1.37792472       5.68329083       1.13623022      -0.00616953       0.00478969      -0.00046062 
Ti       6.98842842       5.68346992       1.13623010      -0.00879953       0.00827969      -0.00030062 
Ti       4.18302138       0.82436770       5.68107907      -0.01282953       0.00470969      -0.00082062 
Ti       9.79352508       0.82454679       5.68106985      -0.00540953       0.00479969       0.00001938 
Ti       1.37792462       5.68329073       5.68106993      -0.00661953       0.00503969       0.00048938 
Ti       6.98842832       5.68346981       5.68106980      -0.00898953       0.00855969       0.00032938 
Ti      -0.00469367       1.65711742       3.40864565       0.04009047      -0.06716031       0.00031938 
Ti       5.61080872       1.64863791       3.40864553      -0.00269953       0.00819969       0.00006938 
Ti      -2.80479174       6.50738185       3.40864561      -0.00641953       0.01156969       0.00044938 
Ti       2.80571196       6.50756094       3.40864548      -0.00093953       0.01145969       0.00013937 
Ti       0.00029369       1.64845872       7.95349445      -0.00025953       0.00383969      -0.00030062 
Ti       5.61080862       1.64863781       7.95349432      -0.00466953       0.00854969      -0.00012062 
Ti      -2.80479184       6.50738175       7.95349440      -0.00625953       0.01110969      -0.00047062 
Ti       2.80571186       6.50756083       7.95349428      -0.00027953       0.01029969      -0.00010062 
Al       0.00042316       3.23916354       1.13623031      -0.00341953       0.00813969      -0.00961063 
Al       5.61092687       3.23934262       1.13623018      -0.00469953       0.00255969      -0.00002062 
Al      -2.80467359       8.09808656       1.13623026      -0.00591953       0.00309969       0.00048938 
Al       2.80582450       8.09827537       1.13623013      -0.00278953       0.00301969       0.00046938 
Al       0.00042306       3.23916343       5.68107910      -0.00347953       0.00812969       0.00960937 
Al       5.61092677       3.23934252       5.68106989      -0.00462953       0.00259969       0.00000938 
Al      -2.80467369       8.09808646       5.68107906      -0.00578953       0.00298969      -0.00050062 
Al       2.80583001       8.09826555       5.68106984      -0.00287953       0.00310969      -0.00043062 
Al       2.80497246       1.61995791       3.40864559      -0.00443953      -0.00075031       0.00003938 
Al       8.41547616       1.62013700       3.40864546      -0.00463953      -0.00385031       0.00014937 
Al      -0.00012430       6.47888094       3.40864554       0.00503047      -0.00125031       0.00017938 
Al       5.61037941       6.47906003       3.40864542       0.00442047      -0.00073031       0.00008938 
Al       2.80497236       1.61995781       7.95349439       0.00249047      -0.00324031      -0.00008062 
Al       8.41546484       1.62013690       7.95349426       0.00535047      -0.00353031      -0.00014062 
Al      -0.00012440       6.47888084       7.95349434       0.00408047      -0.00304031      -0.00017063 
Al       5.61037931       6.47905993       7.95349422       0.00436047      -0.00144031      -0.00010062 
