64
Lattice="11.221007406739036 0.0003581763943235956 -2.5131323619446874e-07 -5.610193513512995 9.717846055813132 -9.1990921583057e-08 -2.0343678424995805e-07 -2.0344042297106932e-07 9.089697596676826" Properties=species:S:1:pos:R:3:force:R:3 virial="3.9857440459556 -0.017637869668905543 0.0005629765485339897 -0.017637869668905543 4.044949381883845 -2.4746221913581962e-05 0.0005629765485339897 -2.4746221913581962e-05 8.232498867544708" energy=-78270.9735688 pbc="T T T"
Ti       2.80512989       3.21069179       1.13623024       0.00373063      -0.00800984      -0.00217969 
Ti       8.41563359       3.21087087       1.13623012       0.00662063      -0.01474984      -0.00044969 
Ti       0.00003313       8.06961481       1.13623020       0.00644063      -0.00781984       0.00068031 
Ti       5.61053683       8.06979390       1.13623007      -0.00052937      -0.01166984      -0.00232969 
Ti       2.80512978       3.21069168       5.68106995       0.00145063      -0.00918984       0.00216031 
Ti       8.41563349       3.21087077       5.68106983       0.00577063      -0.01562984       0.00026031 
Ti       0.00003303       8.06961471       5.68106991       0.00749063      -0.00831984      -0.00072969 
Ti       5.61053673       8.06979380       5.68106978       0.00123063      -0.00865984       0.00226031 
Ti      -1.37760341       4.03475365       3.40864563       0.00541063       0.00998016      -0.00123969 
Ti       4.23290029       4.03493274       3.40864550       0.00568063      -0.00262984      -0.00121969 
Ti      -4.18270017       8.89367668       3.40864558      -0.00690937       0.00442016       0.00255031 
Ti       1.42780354       8.89385577       3.40864546       0.01062062      -0.00852984      -0.00040969 
Ti      -1.37760351       4.03475355       7.95349443       0.01031063      -0.00462984       0.00112031 
Ti       4.23290019       4.03493264       7.95349430       0.00598063      -0.00130984       0.00122031 
Ti      -4.18270027       8.89367658       7.95349438       0.00515063      -0.00411984      -0.00267969 
Ti       1.42780343       8.89385567       7.95349426       0.01179063      -0.00804984       0.00034031 
Ti       1.37796181       4.03460838       3.40864557      -0.00933937       0.01003016      -0.00022969 
Ti       6.98847674       4.03478747       3.40864544      -0.01280937      -0.00039984       0.00004031 
Ti      -1.42712372       8.89353141       3.40864552      -0.00836938      -0.00156984      -0.00153969 
Ti       4.18337998       8.89371049       3.40864540      -0.00323937       0.00698016       0.00177031 
Ti       1.37796171       4.03460828       7.95349437      -0.00713937       0.00181016       0.00027031 
Ti       6.98847664       4.03478736       7.95349424      -0.01180937      -0.00076984      -0.00002969 
Ti      -1.42712382       8.89353130       7.95349432      -0.00865937      -0.00099984       0.00162031 
Ti       4.18337988       8.89371039       7.95349419      -0.01143937      -0.00334984      -0.00182969 
Ti       1.42742820       0.82450335       1.13623033       0.00632063       0.00706016       0.00661031 
Ti       7.03793190       0.82468244       1.13623020       0.00828062      -0.00220984      -0.00141969 
Ti      -1.37766856       5.68342638       1.13623028       0.01158063       0.00430016      -0.00314969 
Ti       4.23283515       5.68360547       1.13623016       0.00459063       0.00210016      -0.00124969 
Ti       1.42743371       0.82449354       5.68107913       0.00273062       0.00469016      -0.00675969 
Ti       7.03793741       0.82467262       5.68106991       0.00972063      -0.00204984       0.00133031 
Ti      -1.37766305       5.68341656       5.68107908       0.01104063       0.00483016       0.00327031 
Ti       4.23283505       5.68360537       5.68106987       0.00663063       0.00474016       0.00160031 
Ti       4.18302148       0.82436780       1.13623027      -0.00848937       0.00440016       0.00015031 
Ti       9.79352518       0.82454689       1.13623014      -0.01179937       0.00439016      -0.00128969 
Ti       1.37792472       5.68329083       1.13623022      -0.00416937       0.00817016      -0.00035969 
Ti       6.98842842       5.68346992       1.13623010      -0.01075937       0.00533016      -0.00057969 
Ti       4.18302138       0.82436770       5.68107907      -0.01091937       0.00521016       0.00005031 
Ti       9.79352508       0.82454679       5.68106985      -0.00985938       0.00229016       0.00133031 
Ti       1.37792462       5.68329073       5.68106993      -0.00446937       0.00752016       0.00041031 
Ti       6.98842832       5.68346981       5.68106980      -0.01115937       0.00737016       0.00059031 
Ti      -0.00469367       1.65711742       3.40864565       0.03892063      -0.06387984       0.00124031 
Ti       5.61080872       1.64863791       3.40864553      -0.00135937       0.00823016      -0.00094969 
Ti      -2.80479174       6.50738185       3.40864561      -0.00292937       0.01173016       0.00030031 
Ti       2.80571196       6.50756094       3.40864548      -0.00428937       0.00996016      -0.00086969 
Ti       0.00029369       1.64845872       7.95349445      -0.00185937       0.00694016      -0.00131969 
Ti       5.61080862       1.64863781       7.95349432      -0.00348937       0.00928016       0.00109031 
Ti      -2.80479184       6.50738175       7.95349440      -0.00314937       0.01041016      -0.00030969 
Ti       2.80571186       6.50756083       7.95349428      -0.00269937       0.00894016       0.00074031 
Al       0.00042316       3.23916354       1.13623031      -0.00315937       0.00930016      -0.01016969 
Al       5.61092687       3.23934262       1.13623018      -0.00477937       0.00266016      -0.00056969 
Al      -2.80467359       8.09808656       1.13623026      -0.00402937       0.00327016       0.00047031 
Al       2.80582450       8.09827537       1.13623013      -0.00413937       0.00204016       0.00060031 
Al       0.00042306       3.23916343       5.68107910      -0.00288938       0.00880016       0.01011031 
Al       5.61092677       3.23934252       5.68106989      -0.00458937       0.00294016       0.00061031 
Al      -2.80467369       8.09808646       5.68107906      -0.00538937       0.00327016      -0.00049969 
Al       2.80583001       8.09826555       5.68106984      -0.00372937       0.00248016      -0.00059969 
Al       2.80497246       1.61995791       3.40864559      -0.00378937       0.00014016      -0.00009969 
Al       8.41547616       1.62013700       3.40864546      -0.00538937      -0.00450984      -0.00012969 
Al      -0.00012430       6.47888094       3.40864554       0.00609063      -0.00052984      -0.00035969 
Al       5.61037941       6.47906003       3.40864542       0.00338063      -0.00140984       0.00043031 
Al       2.80497236       1.61995781       7.95349439       0.00309063      -0.00257984       0.00018031 
Al       8.41546484       1.62013690       7.95349426       0.00480063      -0.00372984       0.00012031 
Al      -0.00012440       6.47888084       7.95349434       0.00524063      -0.00258984       0.00045031 
Al       5.61037931       6.47905993       7.95349422       0.00343063      -0.00211984      -0.00042969 
