64
Lattice="11.221007406739036 0.0003581763943235956 -2.5131323619446874e-07 -5.610193513512995 9.717846055813132 -9.1990921583057e-08 -2.0343678424995805e-07 -2.0344042297106932e-07 9.089697596676826" Properties=species:S:1:pos:R:3:force:R:3 virial="4.092387889292182 -0.03666771432045007 0.0004825513273148483 -0.03666771432045007 3.9704199480356146 -5.5678999305559415e-05 0.0004825513273148483 -5.5678999305559415e-05 8.231057400118242" energy=-78270.9733866 pbc="T T T"
Ti       2.80512989       3.21069179       1.13623024       0.00182063      -0.00984984       0.00220031 
Ti       8.41563359       3.21087087       1.13623012       0.00182063      -0.00974984      -0.00200969 
Ti       0.00003313       8.06961481       1.13623020       0.00539063      -0.00676984      -0.00020969 
Ti       5.61053683       8.06979390       1.13623007       0.00238063      -0.00501984       0.00115031 
Ti       2.80512978       3.21069168       5.68106995       0.00184063      -0.01017984      -0.00215969 
Ti       8.41563349       3.21087077       5.68106983       0.00195063      -0.00975984       0.00202031 
Ti       0.00003303       8.06961471       5.68106991       0.00507063      -0.00715984       0.00019031 
Ti       5.61053673       8.06979380       5.68106978       0.00256063      -0.00489984      -0.00109969 
Ti      -1.37760341       4.03475365       3.40864563       0.01800062      -0.02272984      -0.00023969 
Ti       4.23290029       4.03493274       3.40864550       0.00487063      -0.00186984      -0.00141969 
Ti      -4.18270017       8.89367668       3.40864558       0.02056062      -0.01267984      -0.00095969 
Ti       1.42780354       8.89385577       3.40864546       0.01101063      -0.00445984       0.00013031 
Ti      -1.37760351       4.03475355       7.95349443       0.01017063      -0.00852984       0.00022031 
Ti       4.23290019       4.03493264       7.95349430       0.00699063      -0.00339984       0.00145031 
Ti      -4.18270027       8.89367658       7.95349438       0.00691063      -0.00309984       0.00095031 
Ti       1.42780343       8.89385567       7.95349426       0.01061063      -0.00478984      -0.00009969 
Ti       1.37796181       4.03460838       3.40864557      -0.00708937      -0.01214984      -0.00071969 
Ti       6.98847674       4.03478747       3.40864544      -0.00944937      -0.00105984      -0.00078969 
Ti      -1.42712372       8.89353141       3.40864552      -0.00905937      -0.00349984       0.00008031 
Ti       4.18337998       8.89371049       3.40864540      -0.01833937      -0.01167984      -0.00075969 
Ti       1.37796171       4.03460828       7.95349437      -0.01046937      -0.00498984       0.00067031 
Ti       6.98847664       4.03478736       7.95349424      -0.00872937      -0.00057984       0.00080031 
Ti      -1.42712382       8.89353130       7.95349432      -0.00991937      -0.00285984      -0.00005969 
Ti       4.18337988       8.89371039       7.95349419      -0.00732937      -0.00076984       0.00072031 
Ti       1.42742820       0.82450335       1.13623033       0.01210063      -0.00357984      -0.00788969 
Ti       7.03793190       0.82468244       1.13623020       0.01443063      -0.00201984       0.00131031 
Ti      -1.37766856       5.68342638       1.13623028       0.01076063       0.00119016       0.00218031 
Ti       4.23283515       5.68360547       1.13623016       0.01020063       0.00431016       0.00081031 
Ti       1.42743371       0.82449354       5.68107913       0.01239063      -0.00382984       0.00794031 
Ti       7.03793741       0.82467262       5.68106991       0.01358063      -0.00263984      -0.00131969 
Ti      -1.37766305       5.68341656       5.68107908       0.01091063       0.00144016      -0.00216969 
Ti       4.23283505       5.68360537       5.68106987       0.01040063       0.00472016      -0.00082969 
Ti       4.18302148       0.82436780       1.13623027      -0.01221937       0.00364016      -0.00115969 
Ti       9.79352518       0.82454689       1.13623014      -0.00436937       0.00112016       0.00000031 
Ti       1.37792472       5.68329083       1.13623022      -0.00696937       0.00417016       0.00169031 
Ti       6.98842842       5.68346992       1.13623010      -0.01182937       0.00841016      -0.00068969 
Ti       4.18302138       0.82436770       5.68107907      -0.01096937       0.00292016       0.00118031 
Ti       9.79352508       0.82454679       5.68106985      -0.00515937       0.00094016       0.00003031 
Ti       1.37792462       5.68329073       5.68106993      -0.00881937       0.00499016      -0.00160969 
Ti       6.98842832       5.68346981       5.68106980      -0.01048937       0.00879016       0.00071031 
Ti       0.00529247       1.63980022       3.40864565      -0.04464938       0.07844016      -0.00122969 
Ti       5.61080872       1.64863791       3.40864553      -0.00424937       0.00595016      -0.00010969 
Ti      -2.80479174       6.50738185       3.40864561      -0.00573937       0.01150016       0.00000031 
Ti       2.80571196       6.50756094       3.40864548      -0.00199937       0.01080016      -0.00091969 
Ti       0.00029369       1.64845872       7.95349445      -0.00470937       0.00656016       0.00108031 
Ti       5.61080862       1.64863781       7.95349432      -0.00275937       0.00620016       0.00010031 
Ti      -2.80479184       6.50738175       7.95349440      -0.00592937       0.01185016       0.00003031 
Ti       2.80571186       6.50756083       7.95349428      -0.00149937       0.01231016       0.00086031 
Al       0.00042316       3.23916354       1.13623031      -0.00417937      -0.00557984       0.00956031 
Al       5.61092687       3.23934262       1.13623018      -0.00505937       0.00292016      -0.00012969 
Al      -2.80467359       8.09808656       1.13623026      -0.00460937       0.00297016      -0.00088969 
Al       2.80582450       8.09827537       1.13623013      -0.00372937       0.00316016      -0.00034969 
Al       0.00042306       3.23916343       5.68107910      -0.00428937      -0.00538984      -0.00958969 
Al       5.61092677       3.23934252       5.68106989      -0.00485937       0.00252016       0.00009031 
Al      -2.80467369       8.09808646       5.68107906      -0.00436937       0.00275016       0.00091031 
Al       2.80583001       8.09826555       5.68106984      -0.00399937       0.00325016       0.00035031 
Al       2.80497246       1.61995791       3.40864559       0.01062062      -0.00498984      -0.00031969 
Al       8.41547616       1.62013700       3.40864546       0.01454063      -0.00308984      -0.00016969 
Al      -0.00012430       6.47888094       3.40864554       0.00450063      -0.00309984       0.00022031 
Al       5.61037941       6.47906003       3.40864542       0.00383063      -0.00214984      -0.00039969 
Al       2.80497236       1.61995781       7.95349439       0.00370063      -0.00283984       0.00031031 
Al       8.41546484       1.62013690       7.95349426       0.00492063      -0.00320984       0.00019031 
Al      -0.00012440       6.47888084       7.95349434       0.00474063      -0.00125984      -0.00023969 
Al       5.61037931       6.47905993       7.95349422       0.00425063      -0.00160984       0.00040031 
