64
Lattice="11.221007406739036 0.0003581763943235956 -2.5131323619446874e-07 -5.610193513512995 9.717846055813132 -9.1990921583057e-08 -2.0343678424995805e-07 -2.0344042297106932e-07 9.089697596676826" Properties=species:S:1:pos:R:3:force:R:3 virial="4.096514321796272 -0.04759935785077491 -6.186555478395492e-05 -0.04759935785077491 3.9605956979359234 -5.5678999305559415e-05 -6.186555478395492e-05 -5.5678999305559415e-05 8.236031390722871" energy=-78271.0062168 pbc="T T T"
Ti       2.80512989       3.21069179       1.13623024       0.00018984      -0.00794000       0.00264047 
Ti       8.41563359       3.21087087       1.13623012       0.00054984      -0.00197000       0.00053047 
Ti       0.00003313       8.06961481       1.13623020       0.00113984      -0.01036000       0.00222047 
Ti       5.61053683       8.06979390       1.13623007       0.00463984      -0.00745000       0.00248047 
Ti       2.80512978       3.21069168       5.68106995       0.00041984      -0.00799000      -0.00241953 
Ti       8.41563349       3.21087077       5.68106983      -0.00002016      -0.00164000      -0.00048953 
Ti       0.00003303       8.06961471       5.68106991       0.00106984      -0.01055000      -0.00220953 
Ti       5.61053673       8.06979380       5.68106978       0.00513984      -0.00786000      -0.00239953 
Ti      -1.37760341       4.03475365       3.40864563       0.01647984      -0.01906000      -0.00026953 
Ti       4.23290029       4.03493274       3.40864550       0.00507984      -0.00533000      -0.00098953 
Ti      -4.18270017       8.89367668       3.40864558       0.02338984      -0.01609000      -0.00115953 
Ti       1.42780354       8.89385577       3.40864546       0.00708984      -0.00605000      -0.00021953 
Ti      -1.37760351       4.03475355       7.95349443       0.01136984      -0.00616000       0.00028047 
Ti       4.23290019       4.03493264       7.95349430       0.00469984      -0.00546000       0.00103047 
Ti      -4.18270027       8.89367658       7.95349438       0.00813984      -0.00600000       0.00102047 
Ti       1.42780343       8.89385567       7.95349426       0.00897984      -0.00723000       0.00023047 
Ti       1.37796181       4.03460838       3.40864557      -0.00538016      -0.01026000      -0.00091953 
Ti       6.98847674       4.03478747       3.40864544      -0.00852016       0.00093000      -0.00027953 
Ti      -1.42712372       8.89353141       3.40864552      -0.01091016      -0.00188000      -0.00036953 
Ti       4.18337998       8.89371049       3.40864540      -0.01461016      -0.01612000      -0.00129953 
Ti       1.37796171       4.03460828       7.95349437      -0.00699016      -0.00282000       0.00084047 
Ti       6.98847664       4.03478736       7.95349424      -0.00963016       0.00089000       0.00028047 
Ti      -1.42712382       8.89353130       7.95349432      -0.01198016      -0.00133000       0.00040047 
Ti       4.18337988       8.89371039       7.95349419      -0.00450016      -0.00550000       0.00123047 
Ti       1.42742820       0.82450335       1.13623033       0.01767984      -0.00263000      -0.00658953 
Ti       7.03793190       0.82468244       1.13623020       0.01001984       0.00196000       0.00350047 
Ti      -1.37766856       5.68342638       1.13623028       0.01109984      -0.00000000       0.00493047 
Ti       4.23283515       5.68360547       1.13623016       0.01112984       0.00159000       0.00113047 
Ti       1.42743371       0.82449354       5.68107913       0.01829984      -0.00291000       0.00663047 
Ti       7.03793741       0.82467262       5.68106991       0.00938984       0.00224000      -0.00343953 
Ti      -1.37766305       5.68341656       5.68107908       0.01115984       0.00011000      -0.00492953 
Ti       4.23283505       5.68360537       5.68106987       0.01113984       0.00173000      -0.00115953 
Ti       4.18302148       0.82436780       1.13623027      -0.01232016       0.00571000       0.00186047 
Ti       9.79352518       0.82454689       1.13623014      -0.00406016       0.00152000       0.00071047 
Ti       1.37792472       5.68329083       1.13623022      -0.00897016      -0.00109000       0.00177047 
Ti       6.98842842       5.68346992       1.13623010      -0.01003016       0.00588000       0.00188047 
Ti       4.18302138       0.82436770       5.68107907      -0.01168016       0.00544000      -0.00197953 
Ti       9.79352508       0.82454679       5.68106985      -0.00501016       0.00201000      -0.00071953 
Ti       1.37792462       5.68329073       5.68106993      -0.00965016      -0.00068000      -0.00173953 
Ti       6.98842832       5.68346981       5.68106980      -0.00953016       0.00542000      -0.00190953 
Ti       0.00529247       1.63980022       3.40864565      -0.04054016       0.08351000      -0.00121953 
Ti       5.61080872       1.64863791       3.40864553      -0.00855016       0.00917000      -0.00018953 
Ti      -2.80479174       6.50738185       3.40864561      -0.00580016       0.01051000      -0.00032953 
Ti       2.80571196       6.50756094       3.40864548      -0.00503016       0.00538000      -0.00067953 
Ti       0.00029369       1.64845872       7.95349445      -0.00057016       0.01207000       0.00124047 
Ti       5.61080862       1.64863781       7.95349432      -0.00694016       0.01049000       0.00030047 
Ti      -2.80479184       6.50738175       7.95349440      -0.00632016       0.01091000       0.00020047 
Ti       2.80571186       6.50756083       7.95349428      -0.00400016       0.00594000       0.00067047 
Al       0.00042316       3.23916354       1.13623031      -0.00397016      -0.00378000       0.00962047 
Al       5.61092687       3.23934262       1.13623018      -0.00421016       0.00303000       0.00012047 
Al      -2.80467359       8.09808656       1.13623026      -0.00366016       0.00274000      -0.00047953 
Al       2.80582450       8.09827537       1.13623013      -0.00395016       0.00259000      -0.00051953 
Al       0.00042306       3.23916343       5.68107910      -0.00397016      -0.00365000      -0.00961953 
Al       5.61092677       3.23934252       5.68106989      -0.00413016       0.00300000      -0.00014953 
Al      -2.80467369       8.09808646       5.68107906      -0.00359016       0.00268000       0.00049047 
Al       2.80583001       8.09826555       5.68106984      -0.00412016       0.00256000       0.00051047 
Al       2.80497246       1.61995791       3.40864559       0.01240984      -0.00464000      -0.00011953 
Al       8.41547616       1.62013700       3.40864546       0.01422984      -0.00108000      -0.00002953 
Al      -0.00012430       6.47888094       3.40864554       0.00368984      -0.00396000      -0.00001953 
Al       5.61037941       6.47906003       3.40864542       0.00505984      -0.00273000      -0.00010953 
Al       2.80497236       1.61995781       7.95349439       0.00535984      -0.00170000       0.00006047 
Al       8.41546484       1.62013690       7.95349426       0.00446984      -0.00157000       0.00004047 
Al      -0.00012440       6.47888084       7.95349434       0.00476984      -0.00238000       0.00002047 
Al       5.61037931       6.47905993       7.95349422       0.00485984      -0.00216000       0.00008047 
