64
Lattice="11.221007406739036 0.0003581763943235956 -2.5131323619446874e-07 -5.610193513512995 9.717846055813132 -9.1990921583057e-08 -2.0343678424995805e-07 -2.0344042297106932e-07 9.089697596676826" Properties=species:S:1:pos:R:3:force:R:3 virial="4.064684493859927 -0.03702653453819701 0.00040212610609570686 -0.03702653453819701 4.008386839006528 -0.0001361042205247008 0.00040212610609570686 -0.0001361042205247008 8.24251490086423" energy=-78271.0062584 pbc="T T T"
Ti       2.80512989       3.21069179       1.13623024       0.01473984      -0.01234016       0.00055984 
Ti       8.41563359       3.21087087       1.13623012       0.01950984      -0.01307016       0.00030984 
Ti       0.00003313       8.06961481       1.13623020       0.00124984      -0.00655016      -0.00013016 
Ti       5.61053683       8.06979390       1.13623007       0.00263984      -0.00468016      -0.00105016 
Ti       2.80512978       3.21069168       5.68106995       0.00150984      -0.01348016       0.00096984 
Ti       8.41563349       3.21087077       5.68106983       0.00674984      -0.01200016       0.00134984 
Ti       0.00003303       8.06961471       5.68106991       0.00280984      -0.00672016       0.00059984 
Ti       5.61053673       8.06979380       5.68106978       0.00255984      -0.00503016       0.00040984 
Ti      -1.37760341       4.03475365       3.40864563       0.00755984      -0.00614016      -0.00093016 
Ti       4.23290029       4.03493274       3.40864550       0.00844984      -0.00563016       0.00004984 
Ti      -4.18270017       8.89367668       3.40864558       0.00773984      -0.00277016      -0.00087016 
Ti       1.42780354       8.89385577       3.40864546       0.00867984      -0.00506016      -0.00100016 
Ti      -1.37760351       4.03475355       7.95349443       0.01884984      -0.01326016       0.01530984 
Ti       4.23290019       4.03493264       7.95349430       0.00805984      -0.00491016      -0.00015016 
Ti      -4.18270027       8.89367658       7.95349438       0.00638984      -0.00213016       0.00083984 
Ti       1.42780343       8.89385567       7.95349426       0.00910984      -0.00480016       0.00046984 
Ti       1.37796181       4.03460838       3.40864557      -0.00145016       0.00405984       0.01418984 
Ti       6.98847674       4.03478747       3.40864544      -0.00736016      -0.00337016      -0.00212016 
Ti      -1.42712372       8.89353141       3.40864552      -0.01001016      -0.00019016      -0.00070016 
Ti       4.18337998       8.89371049       3.40864540      -0.00885016       0.00080984      -0.00186016 
Ti       1.37796171       4.03460828       7.95349437      -0.01346016      -0.00291016       0.00082984 
Ti       6.98847664       4.03478736       7.95349424      -0.00621016      -0.00302016       0.00214984 
Ti      -1.42712382       8.89353130       7.95349432      -0.00948016       0.00042984       0.00015984 
Ti       4.18337988       8.89371039       7.95349419      -0.00822016       0.00121984       0.00186984 
Ti       1.42742820       0.82450335       1.13623033       0.01237984      -0.00753016       0.00049984 
Ti       7.03793190       0.82468244       1.13623020       0.01320984       0.00113984      -0.00068016 
Ti      -1.37766856       5.68342638       1.13623028       0.01353984      -0.00250016       0.00071984 
Ti       4.23283515       5.68360547       1.13623016       0.00995984       0.00606984      -0.00106016 
Ti       1.42743371       0.82449354       5.68107913       0.00904984       0.00026984       0.00097984 
Ti       7.03793741       0.82467262       5.68106991       0.01069984      -0.00092016       0.00120984 
Ti      -1.37766305       5.68341656       5.68107908       0.01146984       0.00158984       0.00082984 
Ti       4.23283505       5.68360537       5.68106987       0.00852984       0.00543984       0.00057984 
Ti       4.18302148       0.82436780       1.13623027      -0.00947016       0.00056984      -0.00021016 
Ti       9.79352518       0.82454689       1.13623014      -0.00250016       0.01087984       0.00017984 
Ti       1.37792472       5.68329083       1.13623022      -0.00591016       0.01054984       0.00024984 
Ti       6.98842842       5.68346992       1.13623010      -0.00753016       0.00668984      -0.00096016 
Ti       4.18302138       0.82436770       5.68107907      -0.01026016       0.00179984       0.00073984 
Ti       9.79352508       0.82454679       5.68106985      -0.00694016       0.00326984       0.00138984 
Ti       1.37792462       5.68329073       5.68106993      -0.00921016       0.00730984       0.00125984 
Ti       6.98842832       5.68346981       5.68106980      -0.00869016       0.00756984       0.00049984 
Ti       0.00029379       1.64845882       3.40864565      -0.00485016      -0.00140016       0.00608984 
Ti       5.61080872       1.64863791       3.40864553      -0.00444016       0.00430984      -0.00093016 
Ti      -2.80479174       6.50738185       3.40864561      -0.00159016       0.01301984      -0.00157016 
Ti       2.80571196       6.50756094       3.40864548      -0.00383016       0.01322984      -0.00021016 
Ti       0.00029369       1.64845872       7.95349445      -0.00507016       0.01200984       0.00871984 
Ti       5.61080862       1.64863781       7.95349432      -0.00408016       0.00389984       0.00040984 
Ti      -2.80479184       6.50738175       7.95349440      -0.00213016       0.01160984       0.00150984 
Ti       2.80571186       6.50756083       7.95349428      -0.00365016       0.01236984       0.00009984 
Al       0.00819371       3.23917350       1.14252038      -0.07338016       0.00168984      -0.05585016 
Al       5.61092687       3.23934262       1.13623018      -0.00238016       0.00144984      -0.00057016 
Al      -2.80467359       8.09808656       1.13623026      -0.00362016       0.00330984      -0.00030016 
Al       2.80582450       8.09827537       1.13623013      -0.00340016       0.00371984      -0.00060016 
Al       0.00042306       3.23916343       5.68107910      -0.00513016       0.00175984       0.00224984 
Al       5.61092677       3.23934252       5.68106989      -0.00405016       0.00120984       0.00058984 
Al      -2.80467369       8.09808646       5.68107906      -0.00365016       0.00380984       0.00027984 
Al       2.80583001       8.09826555       5.68106984      -0.00380016       0.00321984       0.00062984 
Al       2.80497246       1.61995791       3.40864559       0.00484984      -0.00447016       0.00056984 
Al       8.41547616       1.62013700       3.40864546       0.00614984      -0.00325016      -0.00071016 
Al      -0.00012430       6.47888094       3.40864554       0.00437984      -0.00127016       0.00013984 
Al       5.61037941       6.47906003       3.40864542       0.00414984      -0.00089016      -0.00017016 
Al       2.80497236       1.61995781       7.95349439       0.00433984      -0.00402016      -0.00012016 
Al       8.41546484       1.62013690       7.95349426       0.00651984      -0.00283016       0.00124984 
Al      -0.00012440       6.47888084       7.95349434       0.00462984      -0.00204016       0.00031984 
Al       5.61037931       6.47905993       7.95349422       0.00413984      -0.00110016       0.00068984 
