64
Lattice="11.221007406739036 0.0003581763943235956 -2.5131323619446874e-07 -5.610193513512995 9.717846055813132 -9.1990921583057e-08 -2.0343678424995805e-07 -2.0344042297106932e-07 9.089697596676826" Properties=species:S:1:pos:R:3:force:R:3 virial="4.077032858594805 -0.014470353263967053 0.00040831266157410244 -0.014470353263967053 4.068483038923661 0.0005072975492284303 0.00040831266157410244 0.0005072975492284303 8.234979676291543" energy=-78270.9734825 pbc="T T T"
Ti       2.80512989       3.21069179       1.13623024       0.01840000      -0.01183000       0.00168938 
Ti       8.41563359       3.21087087       1.13623012       0.01595000      -0.01210000       0.00056938 
Ti       0.00003313       8.06961481       1.13623020      -0.00008000      -0.00484000       0.00051937 
Ti       5.61053683       8.06979390       1.13623007       0.00405000      -0.00826000       0.00176938 
Ti       2.80512978       3.21069168       5.68106995       0.00309000      -0.01460000      -0.00006063 
Ti       8.41563349       3.21087077       5.68106983       0.00436000      -0.01052000       0.00109938 
Ti       0.00003303       8.06961471       5.68106991       0.00193000      -0.00701000      -0.00015063 
Ti       5.61053673       8.06979380       5.68106978       0.00473000      -0.00781000      -0.00227063 
Ti      -1.37760341       4.03475365       3.40864563       0.00437000      -0.00607000      -0.00091062 
Ti       4.23290029       4.03493274       3.40864550       0.01169000      -0.01188000      -0.00239063 
Ti      -4.18270017       8.89367668       3.40864558       0.01331000      -0.00216000      -0.00024063 
Ti       1.42780354       8.89385577       3.40864546       0.00381000      -0.00049000      -0.00157062 
Ti      -1.37760351       4.03475355       7.95349443       0.01516000      -0.01016000       0.01521937 
Ti       4.23290019       4.03493264       7.95349430       0.00919000      -0.00858000       0.00243937 
Ti      -4.18270027       8.89367658       7.95349438       0.01518000      -0.00452000       0.00033937 
Ti       1.42780343       8.89385567       7.95349426       0.00411000      -0.00308000       0.00119937 
Ti       1.37796181       4.03460838       3.40864557      -0.00220000       0.00260000       0.01281937 
Ti       6.98847674       4.03478747       3.40864544      -0.00537000      -0.00749000      -0.00320063 
Ti      -1.42712372       8.89353141       3.40864552      -0.00582000       0.00042000      -0.00227063 
Ti       4.18337998       8.89371049       3.40864540      -0.01296000       0.00373000      -0.00147062 
Ti       1.37796171       4.03460828       7.95349437      -0.01511000      -0.00238000       0.00210937 
Ti       6.98847664       4.03478736       7.95349424      -0.00245000      -0.00510000       0.00316937 
Ti      -1.42712382       8.89353130       7.95349432      -0.00605000      -0.00252000       0.00163937 
Ti       4.18337988       8.89371039       7.95349419      -0.01479000       0.00203000       0.00153937 
Ti       1.42742820       0.82450335       1.13623033       0.01732000      -0.00274000       0.00312937 
Ti       7.03793190       0.82468244       1.13623020       0.00915000       0.00445000       0.00215937 
Ti      -1.37766856       5.68342638       1.13623028       0.01333000      -0.00251000      -0.00171062 
Ti       4.23283515       5.68360547       1.13623016       0.00948000      -0.00043000      -0.00180062 
Ti       1.42743371       0.82449354       5.68107913       0.01131000       0.00374000      -0.00168063 
Ti       7.03793741       0.82467262       5.68106991       0.00829000       0.00171000      -0.00156062 
Ti      -1.37766305       5.68341656       5.68107908       0.01050000       0.00134000       0.00322937 
Ti       4.23283505       5.68360537       5.68106987       0.00986000       0.00157000       0.00123938 
Ti       4.18302148       0.82436780       1.13623027      -0.00315000       0.00135000       0.00207937 
Ti       9.79352518       0.82454689       1.13623014      -0.01046000       0.01865000       0.00210937 
Ti       1.37792472       5.68329083       1.13623022      -0.01058000       0.01084000      -0.00019063 
Ti       6.98842842       5.68346992       1.13623010      -0.00225000       0.00011000      -0.00073062 
Ti       4.18302138       0.82436770       5.68107907      -0.00528000       0.00223000      -0.00163062 
Ti       9.79352508       0.82454679       5.68106985      -0.01349000       0.01082000      -0.00051063 
Ti       1.37792462       5.68329073       5.68106993      -0.01613000       0.00864000       0.00165938 
Ti       6.98842832       5.68346981       5.68106980      -0.00294000       0.00286000       0.00026937 
Ti       0.00029379       1.64845882       3.40864565      -0.00605000       0.00159000       0.00629938 
Ti       5.61080872       1.64863791       3.40864553      -0.00119000       0.00365000      -0.00276063 
Ti      -2.80479174       6.50738185       3.40864561       0.00134000       0.01029000      -0.00126063 
Ti       2.80571196       6.50756094       3.40864548      -0.00759000       0.01399000      -0.00147062 
Ti       0.00029369       1.64845872       7.95349445      -0.00739000       0.01904000       0.00843937 
Ti       5.61080862       1.64863781       7.95349432      -0.00144000       0.00352000       0.00232937 
Ti      -2.80479184       6.50738175       7.95349440       0.00289000       0.00664000       0.00099938 
Ti       2.80571186       6.50756083       7.95349428      -0.00707000       0.01095000       0.00124938 
Al       0.00819371       3.23917350       1.14252038      -0.07319000       0.00218000      -0.05566062 
Al       5.61092687       3.23934262       1.13623018      -0.00309000       0.00174000      -0.00014063 
Al      -2.80467359       8.09808656       1.13623026      -0.00297000       0.00246000       0.00038937 
Al       2.80582450       8.09827537       1.13623013      -0.00462000       0.00369000      -0.00031063 
Al       0.00042306       3.23916343       5.68107910      -0.00561000       0.00244000       0.00207937 
Al       5.61092677       3.23934252       5.68106989      -0.00367000       0.00138000       0.00026937 
Al      -2.80467369       8.09808646       5.68107906      -0.00300000       0.00298000      -0.00030063 
Al       2.80583001       8.09826555       5.68106984      -0.00533000       0.00367000       0.00031937 
Al       2.80497246       1.61995791       3.40864559       0.00516000      -0.00356000       0.00015937 
Al       8.41547616       1.62013700       3.40864546       0.00461000      -0.00210000      -0.00046063 
Al      -0.00012430       6.47888094       3.40864554       0.00412000      -0.00187000       0.00002937 
Al       5.61037941       6.47906003       3.40864542       0.00533000      -0.00269000      -0.00048063 
Al       2.80497236       1.61995781       7.95349439       0.00489000      -0.00277000       0.00028937 
Al       8.41546484       1.62013690       7.95349426       0.00545000      -0.00148000       0.00095938 
Al      -0.00012440       6.47888084       7.95349434       0.00431000      -0.00241000       0.00042937 
Al       5.61037931       6.47905993       7.95349422       0.00465000      -0.00334000       0.00095938 
