64
Lattice="11.221007406739036 0.0003581763943235956 -2.5131323619446874e-07 -5.610193513512995 9.717846055813132 -9.1990921583057e-08 -2.0343678424995805e-07 -2.0344042297106932e-07 9.089697596676826" Properties=species:S:1:pos:R:3:force:R:3 virial="4.0689655902509765 -0.041016862821762104 0.00012373110956790984 -0.041016862821762104 4.021786918172733 -2.4746221913581962e-05 0.00012373110956790984 -2.4746221913581962e-05 8.252277285409138" energy=-78271.0063209 pbc="T T T"
Ti       2.80512989       3.21069179       1.13623024      -0.00838969      -0.01297984      -0.00131016 
Ti       8.41563359       3.21087087       1.13623012      -0.01355969      -0.01104984      -0.00151016 
Ti       0.00003313       8.06961481       1.13623020       0.00434031      -0.00534984      -0.00142016 
Ti       5.61053683       8.06979390       1.13623007       0.00290031      -0.00876984       0.00100984 
Ti       2.80512978       3.21069168       5.68106995       0.00436031      -0.01130984      -0.00031016 
Ti       8.41563349       3.21087077       5.68106983      -0.00064969      -0.01166984      -0.00002016 
Ti       0.00003303       8.06961471       5.68106991       0.00292031      -0.00548984       0.00095984 
Ti       5.61053673       8.06979380       5.68106978       0.00341031      -0.00844984      -0.00050016 
Ti      -1.37760341       4.03475365       3.40864563       0.00990031      -0.00548984      -0.00001016 
Ti       4.23290029       4.03493274       3.40864550       0.00784031      -0.00724984      -0.00045016 
Ti      -4.18270017       8.89367668       3.40864558       0.00971031      -0.00439984       0.00077984 
Ti       1.42780354       8.89385577       3.40864546       0.00715031      -0.00281984       0.00033984 
Ti      -1.37760351       4.03475355       7.95349443      -0.00263969       0.00130016      -0.01499016 
Ti       4.23290019       4.03493264       7.95349430       0.00963031      -0.00900984       0.00041984 
Ti      -4.18270027       8.89367658       7.95349438       0.01115031      -0.00481984      -0.00073016 
Ti       1.42780343       8.89385567       7.95349426       0.00649031      -0.00151984       0.00025984 
Ti       1.37796181       4.03460838       3.40864557      -0.01785969      -0.00846984      -0.01408016 
Ti       6.98847674       4.03478747       3.40864544      -0.01088969      -0.00127984       0.00123984 
Ti      -1.42712372       8.89353141       3.40864552      -0.00906969       0.00066016       0.00004984 
Ti       4.18337998       8.89371049       3.40864540      -0.01022969      -0.00006984       0.00098984 
Ti       1.37796171       4.03460828       7.95349437      -0.00554969      -0.00148984      -0.00030016 
Ti       6.98847664       4.03478736       7.95349424      -0.01222969      -0.00310984      -0.00113016 
Ti      -1.42712382       8.89353130       7.95349432      -0.00705969       0.00171016       0.00042984 
Ti       4.18337988       8.89371039       7.95349419      -0.01279969      -0.00030984      -0.00094016 
Ti       1.42742820       0.82450335       1.13623033       0.00836031       0.00996016      -0.00034016 
Ti       7.03793190       0.82468244       1.13623020       0.00593031      -0.00011984      -0.00250016 
Ti      -1.37766856       5.68342638       1.13623028       0.00589031       0.00896016      -0.00070016 
Ti       4.23283515       5.68360547       1.13623016       0.00896031       0.00044016       0.00039984 
Ti       1.42743371       0.82449354       5.68107913       0.01190031       0.00147016      -0.00127016 
Ti       7.03793741       0.82467262       5.68106991       0.00719031       0.00133016       0.00200984 
Ti      -1.37766305       5.68341656       5.68107908       0.00847031       0.00551016      -0.00085016 
Ti       4.23283505       5.68360537       5.68106987       0.01071031       0.00156016       0.00015984 
Ti       4.18302148       0.82436780       1.13623027      -0.00681969       0.00590016      -0.00164016 
Ti       9.79352518       0.82454689       1.13623014      -0.01524969      -0.00340984      -0.00111016 
Ti       1.37792472       5.68329083       1.13623022      -0.01173969       0.00244016      -0.00104016 
Ti       6.98842842       5.68346992       1.13623010      -0.00765969       0.00467016       0.00037984 
Ti       4.18302138       0.82436770       5.68107907      -0.00611969       0.00469016       0.00113984 
Ti       9.79352508       0.82454679       5.68106985      -0.01086969       0.00328016      -0.00038016 
Ti       1.37792462       5.68329073       5.68106993      -0.00869969       0.00567016      -0.00048016 
Ti       6.98842832       5.68346981       5.68106980      -0.00711969       0.00492016       0.00018984 
Ti       0.00029379       1.64845882       3.40864565      -0.00244969       0.01292016      -0.00725016 
Ti       5.61080872       1.64863791       3.40864553      -0.00409969       0.00639016       0.00013984 
Ti      -2.80479174       6.50738185       3.40864561      -0.00433969       0.01018016       0.00104984 
Ti       2.80571196       6.50756094       3.40864548      -0.00457969       0.00951016      -0.00030016 
Ti       0.00029369       1.64845872       7.95349445      -0.00290969      -0.00037984      -0.00747016 
Ti       5.61080862       1.64863781       7.95349432      -0.00331969       0.00584016       0.00039984 
Ti      -2.80479184       6.50738175       7.95349440      -0.00404969       0.01096016      -0.00092016 
Ti       2.80571186       6.50756083       7.95349428      -0.00528969       0.01161016       0.00032984 
Al      -0.00734177       3.23916329       1.12993115       0.06510031       0.00175016       0.05580984 
Al       5.61092687       3.23934262       1.13623018      -0.00535969       0.00162016      -0.00015016 
Al      -2.80467359       8.09808656       1.13623026      -0.00364969       0.00318016       0.00053984 
Al       2.80582450       8.09827537       1.13623013      -0.00539969       0.00280016       0.00003984 
Al       0.00042306       3.23916343       5.68107910      -0.00286969       0.00180016      -0.00226016 
Al       5.61092677       3.23934252       5.68106989      -0.00409969       0.00168016       0.00012984 
Al      -2.80467369       8.09808646       5.68107906      -0.00372969       0.00246016      -0.00066016 
Al       2.80583001       8.09826555       5.68106984      -0.00480969       0.00334016      -0.00010016 
Al       2.80497246       1.61995791       3.40864559       0.00410031      -0.00259984      -0.00071016 
Al       8.41547616       1.62013700       3.40864546       0.00327031      -0.00372984       0.00033984 
Al      -0.00012430       6.47888094       3.40864554       0.00438031      -0.00195984      -0.00023016 
Al       5.61037941       6.47906003       3.40864542       0.00513031      -0.00250984       0.00011984 
Al       2.80497236       1.61995781       7.95349439       0.00511031      -0.00259984       0.00019984 
Al       8.41546484       1.62013690       7.95349426       0.00227031      -0.00420984      -0.00080016 
Al      -0.00012440       6.47888084       7.95349434       0.00453031      -0.00103984      -0.00028016 
Al       5.61037931       6.47905993       7.95349422       0.00505031      -0.00284984      -0.00071016 
