64
Lattice="11.221007406739036 0.0003581763943235956 -2.5131323619446874e-07 -5.610193513512995 9.717846055813132 -9.1990921583057e-08 -2.0343678424995805e-07 -2.0344042297106932e-07 9.089697596676826" Properties=species:S:1:pos:R:3:force:R:3 virial="4.04986769348917 -0.035733544443212355 0.00021652944174384216 -0.035733544443212355 4.012216316847654 -0.00023508910817902865 0.00021652944174384216 -0.00023508910817902865 8.230438744570401" energy=-78270.9735285 pbc="T T T"
Ti       2.80512989       3.21069179       1.13623024      -0.00855953      -0.01045937      -0.00083984 
Ti       8.41563359       3.21087087       1.13623012      -0.01297953      -0.01185938      -0.00101984 
Ti       0.00003313       8.06961481       1.13623020       0.00732047      -0.00751937      -0.00090984 
Ti       5.61053683       8.06979390       1.13623007       0.00104047      -0.01011937      -0.00010984 
Ti       2.80512978       3.21069168       5.68106995       0.00429047      -0.00805937      -0.00072984 
Ti       8.41563349       3.21087077       5.68106983       0.00031047      -0.01188937      -0.00051984 
Ti       0.00003303       8.06961471       5.68106991       0.00653047      -0.00729937       0.00041016 
Ti       5.61053673       8.06979380       5.68106978       0.00087047      -0.01085937       0.00070016 
Ti      -1.37760341       4.03475365       3.40864563       0.01251047      -0.00514937       0.00064016 
Ti       4.23290029       4.03493274       3.40864550       0.00591047      -0.00538937       0.00007016 
Ti      -4.18270017       8.89367668       3.40864558       0.00996047      -0.00284937      -0.00059984 
Ti       1.42780354       8.89385577       3.40864546       0.00712047      -0.00465937       0.00097016 
Ti      -1.37760351       4.03475355       7.95349443       0.00084047       0.00172063      -0.01569984 
Ti       4.23290019       4.03493264       7.95349430       0.00689047      -0.00636937      -0.00001984 
Ti      -4.18270027       8.89367658       7.95349438       0.01058047      -0.00286937       0.00061016 
Ti       1.42780343       8.89385567       7.95349426       0.00706047      -0.00432937      -0.00043984 
Ti       1.37796181       4.03460838       3.40864557      -0.01546953      -0.00599937      -0.01341984 
Ti       6.98847674       4.03478747       3.40864544      -0.01383953      -0.00319937       0.00170016 
Ti      -1.42712372       8.89353141       3.40864552      -0.00485953       0.00112063       0.00027016 
Ti       4.18337998       8.89371049       3.40864540      -0.01406953      -0.00307937       0.00030016 
Ti       1.37796171       4.03460828       7.95349437      -0.00423953       0.00072063      -0.00101984 
Ti       6.98847664       4.03478736       7.95349424      -0.01466953      -0.00401937      -0.00164984 
Ti      -1.42712382       8.89353130       7.95349432      -0.00456953       0.00134063       0.00025016 
Ti       4.18337988       8.89371039       7.95349419      -0.01467953      -0.00274937      -0.00023984 
Ti       1.42742820       0.82450335       1.13623033       0.00844047       0.01146063      -0.00174984 
Ti       7.03793190       0.82468244       1.13623020       0.00493047      -0.00292937      -0.00103984 
Ti      -1.37766856       5.68342638       1.13623028       0.01056047       0.00864063      -0.00126984 
Ti       4.23283515       5.68360547       1.13623016       0.00539047      -0.00045937       0.00052016 
Ti       1.42743371       0.82449354       5.68107913       0.01301047       0.00502063       0.00010016 
Ti       7.03793741       0.82467262       5.68106991       0.00629047      -0.00127937       0.00054016 
Ti      -1.37766305       5.68341656       5.68107908       0.01341047       0.00453063      -0.00030984 
Ti       4.23283505       5.68360537       5.68106987       0.00556047      -0.00100937       0.00005016 
Ti       4.18302148       0.82436780       1.13623027      -0.00772953       0.00738063      -0.00097984 
Ti       9.79352518       0.82454689       1.13623014      -0.01467953      -0.00385937      -0.00186984 
Ti       1.37792472       5.68329083       1.13623022      -0.01061953       0.00254063      -0.00125984 
Ti       6.98842842       5.68346992       1.13623010      -0.01249953       0.00528063       0.00040016 
Ti       4.18302138       0.82436770       5.68107907      -0.00651953       0.00650063       0.00048016 
Ti       9.79352508       0.82454679       5.68106985      -0.01177953       0.00434063       0.00034016 
Ti       1.37792462       5.68329073       5.68106993      -0.00701953       0.00548063      -0.00030984 
Ti       6.98842832       5.68346981       5.68106980      -0.01099953       0.00383063       0.00016016 
Ti       0.00029379       1.64845882       3.40864565      -0.00008953       0.01686063      -0.00723984 
Ti       5.61080872       1.64863791       3.40864553      -0.00426953       0.00727063       0.00086016 
Ti      -2.80479174       6.50738185       3.40864561      -0.00227953       0.00975063       0.00089016 
Ti       2.80571196       6.50756094       3.40864548      -0.00540953       0.00736063       0.00012016 
Ti       0.00029369       1.64845872       7.95349445      -0.00040953       0.00192063      -0.00748984 
Ti       5.61080862       1.64863781       7.95349432      -0.00414953       0.00627063      -0.00035984 
Ti      -2.80479184       6.50738175       7.95349440      -0.00188953       0.01098063      -0.00082984 
Ti       2.80571186       6.50756083       7.95349428      -0.00587953       0.00906063      -0.00004984 
Al      -0.00734177       3.23916329       1.12993115       0.06590047       0.00244063       0.05557016 
Al       5.61092687       3.23934262       1.13623018      -0.00647953       0.00188063       0.00032016 
Al      -2.80467359       8.09808656       1.13623026      -0.00340953       0.00386063       0.00006016 
Al       2.80582450       8.09827537       1.13623013      -0.00579953       0.00179063       0.00002016 
Al       0.00042306       3.23916343       5.68107910      -0.00218953       0.00271063      -0.00195984 
Al       5.61092677       3.23934252       5.68106989      -0.00516953       0.00183063      -0.00034984 
Al      -2.80467369       8.09808646       5.68107906      -0.00290953       0.00305063      -0.00007984 
Al       2.80583001       8.09826555       5.68106984      -0.00548953       0.00231063      -0.00004984 
Al       2.80497246       1.61995791       3.40864559       0.00436047      -0.00102937      -0.00067984 
Al       8.41547616       1.62013700       3.40864546       0.00262047      -0.00402937       0.00075016 
Al      -0.00012430       6.47888094       3.40864554       0.00530047      -0.00186937       0.00001016 
Al       5.61037941       6.47906003       3.40864542       0.00318047      -0.00359937      -0.00018984 
Al       2.80497236       1.61995781       7.95349439       0.00493047      -0.00163937       0.00020016 
Al       8.41546484       1.62013690       7.95349426       0.00216047      -0.00453937      -0.00116984 
Al      -0.00012440       6.47888084       7.95349434       0.00520047      -0.00100937      -0.00049984 
Al       5.61037931       6.47905993       7.95349422       0.00312047      -0.00327937      -0.00035984 
