64
Lattice="11.221007406739036 0.0003581763943235956 -2.5131323619446874e-07 -5.610193513512995 9.717846055813132 -9.1990921583057e-08 -2.0343678424995805e-07 -2.0344042297106932e-07 9.089697596676826" Properties=species:S:1:pos:R:3:force:R:3 virial="4.0521257862387845 -0.03260314737114424 0.0002103428862654467 -0.03260314737114424 4.018130663885001 -0.0004516185499228708 0.0002103428862654467 -0.0004516185499228708 8.228081666933132" energy=-78270.9735497 pbc="T T T"
Ti       2.80512989       3.21069179       1.13623024      -0.00931969      -0.01023984       0.00084031 
Ti       8.41563359       3.21087087       1.13623012      -0.00144969      -0.00594984       0.00245031 
Ti       0.00003313       8.06961481       1.13623020       0.00159031      -0.00910984       0.00111031 
Ti       5.61053683       8.06979390       1.13623007       0.00590031      -0.00734984       0.00028031 
Ti       2.80512978       3.21069168       5.68106995       0.00158031      -0.00817984      -0.00089969 
Ti       8.41563349       3.21087077       5.68106983       0.00381031      -0.00614984      -0.00233969 
Ti       0.00003303       8.06961471       5.68106991       0.00100031      -0.01269984      -0.00104969 
Ti       5.61053673       8.06979380       5.68106978       0.00624031      -0.01033984      -0.00035969 
Ti      -1.37760341       4.03475365       3.40864563      -0.00113969       0.00005016       0.00965031 
Ti       4.23290029       4.03493274       3.40864550       0.01164031      -0.00572984      -0.00005969 
Ti      -4.18270017       8.89367668       3.40864558       0.00989031      -0.00728984      -0.00178969 
Ti       1.42780354       8.89385577       3.40864546       0.00841031      -0.00302984      -0.00030969 
Ti      -1.37760351       4.03475355       7.95349443       0.00064031      -0.00168984      -0.00965969 
Ti       4.23290019       4.03493264       7.95349430       0.01035031      -0.00554984       0.00001031 
Ti      -4.18270027       8.89367658       7.95349438       0.00828031      -0.00536984       0.00185031 
Ti       1.42780343       8.89385567       7.95349426       0.00970031      -0.00391984       0.00032031 
Ti       1.37796181       4.03460838       3.40864557      -0.01337969      -0.00472984       0.00043031 
Ti       6.98847674       4.03478747       3.40864544      -0.00573969       0.00221016       0.00093031 
Ti      -1.42712372       8.89353141       3.40864552      -0.01355969      -0.00580984      -0.00050969 
Ti       4.18337998       8.89371049       3.40864540      -0.00593969       0.00291016      -0.00148969 
Ti       1.37796171       4.03460828       7.95349437      -0.01273969      -0.00503984      -0.00038969 
Ti       6.98847664       4.03478736       7.95349424      -0.00681969       0.00112016      -0.00091969 
Ti      -1.42712382       8.89353130       7.95349432      -0.01353969      -0.00473984       0.00061031 
Ti       4.18337988       8.89371039       7.95349419      -0.00595969       0.00269016       0.00139031 
Ti       1.42742820       0.82450335       1.13623033      -0.00189969       0.01585016       0.00017031 
Ti       7.03793190       0.82468244       1.13623020       0.01357031       0.00339016       0.00108031 
Ti      -1.37766856       5.68342638       1.13623028      -0.00488969       0.01449016       0.00279031 
Ti       4.23283515       5.68360547       1.13623016       0.01451031       0.00092016       0.00082031 
Ti       1.42743371       0.82449354       5.68107913       0.00551031       0.00166016      -0.00008969 
Ti       7.03793741       0.82467262       5.68106991       0.01267031       0.00536016      -0.00107969 
Ti      -1.37766305       5.68341656       5.68107908       0.00526031       0.00050016      -0.00274969 
Ti       4.23283505       5.68360537       5.68106987       0.01380031       0.00001016      -0.00088969 
Ti       4.18302148       0.82436780       1.13623027      -0.01173969       0.00480016       0.00128031 
Ti       9.79352518       0.82454689       1.13623014      -0.00480969       0.01380016       0.00028031 
Ti       1.37792472       5.68329083       1.13623022      -0.00745969       0.01237016       0.00052031 
Ti       6.98842842       5.68346992       1.13623010      -0.00541969       0.00478016       0.00300031 
Ti       4.18302138       0.82436770       5.68107907      -0.00977969       0.00499016      -0.00140969 
Ti       9.79352508       0.82454679       5.68106985      -0.00767969       0.00891016      -0.00038969 
Ti       1.37792462       5.68329073       5.68106993      -0.01254969       0.00260016      -0.00054969 
Ti       6.98842832       5.68346981       5.68106980      -0.00407969       0.00347016      -0.00294969 
Ti       0.00029379       1.64845882       3.40864565      -0.00551969       0.01789016      -0.01009969 
Ti       5.61080872       1.64863791       3.40864553      -0.00112969       0.01277016      -0.00051969 
Ti      -2.80479174       6.50738185       3.40864561      -0.00427969       0.00573016       0.00125031 
Ti       2.80571196       6.50756094       3.40864548      -0.00242969       0.00783016       0.00100031 
Ti       0.00029369       1.64845872       7.95349445      -0.00479969       0.01618016       0.01018031 
Ti       5.61080862       1.64863781       7.95349432      -0.00145969       0.01228016       0.00056031 
Ti      -2.80479184       6.50738175       7.95349440      -0.00464969       0.00727016      -0.00137969 
Ti       2.80571186       6.50756083       7.95349428      -0.00263969       0.00854016      -0.00092969 
Al      -0.00458113       3.24783185       1.13623031       0.03884031      -0.07459984       0.00028031 
Al       5.61092687       3.23934262       1.13623018      -0.00376969       0.00321016       0.00067031 
Al      -2.80467359       8.09808656       1.13623026      -0.00551969       0.00250016       0.00051031 
Al       2.80582450       8.09827537       1.13623013      -0.00303969       0.00447016       0.00003031 
Al       0.00042306       3.23916343       5.68107910      -0.00491969       0.00179016      -0.00028969 
Al       5.61092677       3.23934252       5.68106989      -0.00309969       0.00350016      -0.00060969 
Al      -2.80467369       8.09808646       5.68107906      -0.00463969       0.00097016      -0.00047969 
Al       2.80583001       8.09826555       5.68106984      -0.00359969       0.00334016       0.00000031 
Al       2.80497246       1.61995791       3.40864559       0.00221031      -0.00184984      -0.00096969 
Al       8.41547616       1.62013700       3.40864546       0.00479031      -0.00134984      -0.00016969 
Al      -0.00012430       6.47888094       3.40864554       0.00264031      -0.00225984       0.00082031 
Al       5.61037941       6.47906003       3.40864542       0.00640031      -0.00317984       0.00004031 
Al       2.80497236       1.61995781       7.95349439       0.00197031      -0.00202984       0.00094031 
Al       8.41546484       1.62013690       7.95349426       0.00512031      -0.00167984       0.00016031 
Al      -0.00012440       6.47888084       7.95349434       0.00287031      -0.00233984      -0.00085969 
Al       5.61037931       6.47905993       7.95349422       0.00619031      -0.00294984      -0.00006969 
