64
Lattice="11.221007406739036 0.0003581763943235956 -2.5131323619446874e-07 -5.610193513512995 9.717846055813132 -9.1990921583057e-08 -2.0343678424995805e-07 -2.0344042297106932e-07 9.089697596676826" Properties=species:S:1:pos:R:3:force:R:3 virial="4.097238148787244 -0.041975778920913406 -0.0002598353300926106 -0.041975778920913406 4.055980010301825 6.80521102623504e-05 -0.0002598353300926106 6.80521102623504e-05 8.242799482416235" energy=-78271.0063261 pbc="T T T"
Ti       2.80512989       3.21069179       1.13623024      -0.00449953      -0.00998062       0.00012031 
Ti       8.41563359       3.21087087       1.13623012      -0.00668953      -0.01199063      -0.00085969 
Ti       0.00003313       8.06961481       1.13623020       0.00688047      -0.00387062      -0.00087969 
Ti       5.61053683       8.06979390       1.13623007       0.00084047      -0.00695062      -0.00028969 
Ti       2.80512978       3.21069168       5.68106995       0.00633047      -0.01059063      -0.00007969 
Ti       8.41563349       3.21087077       5.68106983      -0.00081953      -0.01408063       0.00084031 
Ti       0.00003303       8.06961471       5.68106991       0.00567047      -0.00541062       0.00081031 
Ti       5.61053673       8.06979380       5.68106978       0.00106047      -0.00947062       0.00033031 
Ti      -1.37760341       4.03475365       3.40864563       0.00132047      -0.00149062       0.00743031 
Ti       4.23290029       4.03493274       3.40864550       0.00958047      -0.00791063      -0.00168969 
Ti      -4.18270017       8.89367668       3.40864558       0.00983047      -0.00392062      -0.00274969 
Ti       1.42780354       8.89385577       3.40864546       0.00572047      -0.00121062      -0.00120969 
Ti      -1.37760351       4.03475355       7.95349443       0.00002047      -0.00061062      -0.00735969 
Ti       4.23290019       4.03493264       7.95349430       0.01116047      -0.00914063       0.00168031 
Ti      -4.18270027       8.89367658       7.95349438       0.01020047      -0.00486062       0.00277031 
Ti       1.42780343       8.89385567       7.95349426       0.00578047       0.00010938       0.00127031 
Ti       1.37796181       4.03460838       3.40864557      -0.00641953      -0.00084062      -0.00137969 
Ti       6.98847674       4.03478747       3.40864544      -0.01321953      -0.00629062      -0.00102969 
Ti      -1.42712372       8.89353141       3.40864552      -0.00432953       0.00150938      -0.00079969 
Ti       4.18337998       8.89371049       3.40864540      -0.01303953      -0.00007062      -0.00257969 
Ti       1.37796171       4.03460828       7.95349437      -0.00670953      -0.00082062       0.00135031 
Ti       6.98847664       4.03478736       7.95349424      -0.01287953      -0.00656062       0.00101031 
Ti      -1.42712382       8.89353130       7.95349432      -0.00336953       0.00145937       0.00084031 
Ti       4.18337988       8.89371039       7.95349419      -0.01426953       0.00005938       0.00249031 
Ti       1.42742820       0.82450335       1.13623033       0.00451047       0.01678937       0.00005031 
Ti       7.03793190       0.82468244       1.13623020       0.00733047      -0.00126063      -0.00217969 
Ti      -1.37766856       5.68342638       1.13623028       0.00150047       0.01935937      -0.00085969 
Ti       4.23283515       5.68360547       1.13623016       0.00785047      -0.00022062       0.00006031 
Ti       1.42743371       0.82449354       5.68107913       0.01225047       0.00312938      -0.00006969 
Ti       7.03793741       0.82467262       5.68106991       0.00614047       0.00046938       0.00202031 
Ti      -1.37766305       5.68341656       5.68107908       0.01233047       0.00592938       0.00093031 
Ti       4.23283505       5.68360537       5.68106987       0.00824047      -0.00058062      -0.00006969 
Ti       4.18302148       0.82436780       1.13623027      -0.00409953       0.00573938      -0.00085969 
Ti       9.79352518       0.82454689       1.13623014      -0.01178953       0.00916937      -0.00052969 
Ti       1.37792472       5.68329083       1.13623022      -0.00426953       0.01817938       0.00001031 
Ti       6.98842842       5.68346992       1.13623010      -0.00931953       0.00325938      -0.00103969 
Ti       4.18302138       0.82436770       5.68107907      -0.00225953       0.00515937       0.00068031 
Ti       9.79352508       0.82454679       5.68106985      -0.01371953       0.00483937       0.00048031 
Ti       1.37792462       5.68329073       5.68106993      -0.01019953       0.00842937       0.00004031 
Ti       6.98842832       5.68346981       5.68106980      -0.00922953       0.00269938       0.00115031 
Ti       0.00029379       1.64845882       3.40864565      -0.00416953       0.01457937      -0.01041969 
Ti       5.61080872       1.64863791       3.40864553      -0.00165953       0.00665938      -0.00118969 
Ti      -2.80479174       6.50738185       3.40864561      -0.00157953       0.01079937      -0.00090969 
Ti       2.80571196       6.50756094       3.40864548      -0.00505953       0.01006938      -0.00129969 
Ti       0.00029369       1.64845872       7.95349445      -0.00464953       0.01436938       0.01057031 
Ti       5.61080862       1.64863781       7.95349432      -0.00036953       0.00595938       0.00117031 
Ti      -2.80479184       6.50738175       7.95349440      -0.00170953       0.00926937       0.00097031 
Ti       2.80571186       6.50756083       7.95349428      -0.00555953       0.01177937       0.00131031 
Al      -0.00458113       3.24783185       1.13623031       0.04018047      -0.07355063       0.00000031 
Al       5.61092687       3.23934262       1.13623018      -0.00514953       0.00191938      -0.00025969 
Al      -2.80467359       8.09808656       1.13623026      -0.00401953       0.00399938      -0.00027969 
Al       2.80582450       8.09827537       1.13623013      -0.00463953       0.00365938      -0.00014969 
Al       0.00042306       3.23916343       5.68107910      -0.00357953       0.00202938       0.00001031 
Al       5.61092677       3.23934252       5.68106989      -0.00452953       0.00135938       0.00018031 
Al      -2.80467369       8.09808646       5.68107906      -0.00301953       0.00295938       0.00022031 
Al       2.80583001       8.09826555       5.68106984      -0.00540953       0.00320938       0.00013031 
Al       2.80497246       1.61995791       3.40864559       0.00472047      -0.00197062      -0.00093969 
Al       8.41547616       1.62013700       3.40864546       0.00289047      -0.00318062      -0.00042969 
Al      -0.00012430       6.47888094       3.40864554       0.00458047      -0.00029062       0.00028031 
Al       5.61037941       6.47906003       3.40864542       0.00331047      -0.00315062      -0.00060969 
Al       2.80497236       1.61995781       7.95349439       0.00489047      -0.00200062       0.00100031 
Al       8.41546484       1.62013690       7.95349426       0.00299047      -0.00307062       0.00036031 
Al      -0.00012440       6.47888084       7.95349434       0.00431047      -0.00034062      -0.00020969 
Al       5.61037931       6.47905993       7.95349422       0.00381047      -0.00322062       0.00064031 
