64
Lattice="11.221007406739036 0.0003581763943235956 -2.5131323619446874e-07 -5.610193513512995 9.717846055813132 -9.1990921583057e-08 -2.0343678424995805e-07 -2.0344042297106932e-07 9.089697596676826" Properties=species:S:1:pos:R:3:force:R:3 virial="4.054625154652056 -0.0303203083996163 -2.4746221913581962e-05 -0.0303203083996163 4.011746138631296 6.1865554783954905e-06 -2.4746221913581962e-05 6.1865554783954905e-06 8.237726506923952" energy=-78270.9734708 pbc="T T T"
Ti       2.80512989       3.21069179       1.13623024       0.01452016      -0.00810969      -0.00033016 
Ti       8.41563359       3.21087087       1.13623012       0.00951016      -0.00835969       0.00024984 
Ti       0.00003313       8.06961481       1.13623020       0.00228016      -0.01254969       0.00013984 
Ti       5.61053683       8.06979390       1.13623007       0.00347016      -0.01146969       0.00002984 
Ti       2.80512978       3.21069168       5.68106995       0.00372016      -0.00716969       0.00040984 
Ti       8.41563349       3.21087077       5.68106983       0.00378016      -0.00702969      -0.00022016 
Ti       0.00003303       8.06961471       5.68106991       0.00368016      -0.01054969      -0.00017016 
Ti       5.61053673       8.06979380       5.68106978       0.00289016      -0.01140969       0.00000984 
Ti      -1.37760341       4.03475365       3.40864563       0.01810016      -0.00803969      -0.00843016 
Ti       4.23290029       4.03493274       3.40864550       0.00520016      -0.00523969       0.00115984 
Ti      -4.18270017       8.89367668       3.40864558       0.00837016      -0.00283969       0.00069984 
Ti       1.42780354       8.89385577       3.40864546       0.00861016      -0.00636969       0.00075984 
Ti      -1.37760351       4.03475355       7.95349443       0.01768016      -0.00769969       0.00840984 
Ti       4.23290019       4.03493264       7.95349430       0.00578016      -0.00536969      -0.00109016 
Ti      -4.18270027       8.89367658       7.95349438       0.00892016      -0.00379969      -0.00073016 
Ti       1.42780343       8.89385567       7.95349426       0.00926016      -0.00616969      -0.00077016 
Ti       1.37796181       4.03460838       3.40864557      -0.00736984      -0.00135969       0.00023984 
Ti       6.98847674       4.03478747       3.40864544      -0.01194984      -0.00107969       0.00004984 
Ti      -1.42712372       8.89353141       3.40864552      -0.00964984       0.00106031       0.00012984 
Ti       4.18337998       8.89371049       3.40864540      -0.00950984      -0.00366969       0.00080984 
Ti       1.37796171       4.03460828       7.95349437      -0.00653984      -0.00188969      -0.00029016 
Ti       6.98847664       4.03478736       7.95349424      -0.01289984      -0.00061969      -0.00008016 
Ti      -1.42712382       8.89353130       7.95349432      -0.00954984       0.00054031      -0.00015016 
Ti       4.18337988       8.89371039       7.95349419      -0.00956984      -0.00298969      -0.00080016 
Ti       1.42742820       0.82450335       1.13623033       0.01873016      -0.01181969       0.00048984 
Ti       7.03793190       0.82468244       1.13623020       0.00770016       0.00438031       0.00005984 
Ti      -1.37766856       5.68342638       1.13623028       0.02074016      -0.01383969       0.00003984 
Ti       4.23283515       5.68360547       1.13623016       0.00879016      -0.00166969      -0.00050016 
Ti       1.42743371       0.82449354       5.68107913       0.01115016       0.00436031      -0.00044016 
Ti       7.03793741       0.82467262       5.68106991       0.00838016       0.00212031      -0.00007016 
Ti      -1.37766305       5.68341656       5.68107908       0.01087016      -0.00035969      -0.00009016 
Ti       4.23283505       5.68360537       5.68106987       0.00871016      -0.00194969       0.00048984 
Ti       4.18302148       0.82436780       1.13623027      -0.00881984       0.00764031       0.00010984 
Ti       9.79352518       0.82454689       1.13623014      -0.00914984       0.00012031      -0.00029016 
Ti       1.37792472       5.68329083       1.13623022      -0.01271984      -0.00845969       0.00074984 
Ti       6.98842842       5.68346992       1.13623010      -0.01012984       0.00360031      -0.00038016 
Ti       4.18302138       0.82436770       5.68107907      -0.01038984       0.00800031      -0.00011016 
Ti       9.79352508       0.82454679       5.68106985      -0.00767984       0.00549031       0.00033984 
Ti       1.37792462       5.68329073       5.68106993      -0.00704984       0.00110031      -0.00072016 
Ti       6.98842832       5.68346981       5.68106980      -0.01094984       0.00413031       0.00037984 
Ti       0.00029379       1.64845882       3.40864565      -0.00027984       0.00488031       0.00912984 
Ti       5.61080872       1.64863791       3.40864553      -0.00644984       0.01076031       0.00017984 
Ti      -2.80479174       6.50738185       3.40864561      -0.00355984       0.00850031      -0.00013016 
Ti       2.80571196       6.50756094       3.40864548      -0.00347984       0.00506031       0.00031984 
Ti       0.00029369       1.64845872       7.95349445      -0.00093984       0.00433031      -0.00914016 
Ti       5.61080862       1.64863781       7.95349432      -0.00686984       0.01172031      -0.00017016 
Ti      -2.80479184       6.50738175       7.95349440      -0.00354984       0.00716031       0.00016984 
Ti       2.80571186       6.50756083       7.95349428      -0.00236984       0.00530031      -0.00037016 
Al       0.00542185       3.23050493       1.13623031      -0.04720984       0.07924031       0.00011984 
Al       5.61092687       3.23934262       1.13623018      -0.00429984       0.00284031      -0.00016016 
Al      -2.80467359       8.09808656       1.13623026      -0.00355984       0.00169031      -0.00005016 
Al       2.80582450       8.09827537       1.13623013      -0.00427984       0.00110031       0.00002984 
Al       0.00042306       3.23916343       5.68107910      -0.00365984       0.00348031      -0.00012016 
Al       5.61092677       3.23934252       5.68106989      -0.00483984       0.00288031       0.00010984 
Al      -2.80467369       8.09808646       5.68107906      -0.00415984       0.00262031      -0.00000016 
Al       2.80583001       8.09826555       5.68106984      -0.00395984       0.00183031       0.00000984 
Al       2.80497246       1.61995791       3.40864559       0.00506016      -0.00242969       0.00053984 
Al       8.41547616       1.62013700       3.40864546       0.00435016      -0.00218969       0.00021984 
Al      -0.00012430       6.47888094       3.40864554       0.00507016      -0.00420969      -0.00040016 
Al       5.61037941       6.47906003       3.40864542       0.00381016      -0.00307969       0.00019984 
Al       2.80497236       1.61995781       7.95349439       0.00525016      -0.00214969      -0.00054016 
Al       8.41546484       1.62013690       7.95349426       0.00448016      -0.00233969      -0.00025016 
Al      -0.00012440       6.47888084       7.95349434       0.00481016      -0.00422969       0.00039984 
Al       5.61037931       6.47905993       7.95349422       0.00372016      -0.00342969      -0.00019016 
