64
Lattice="11.221007406739036 0.0003581763943235956 -2.5131323619446874e-07 -5.610193513512995 9.717846055813132 -9.1990921583057e-08 -2.0343678424995805e-07 -2.0344042297106932e-07 9.089697596676826" Properties=species:S:1:pos:R:3:force:R:3 virial="4.077967028472043 -0.036704833653320446 -2.4746221913581962e-05 -0.036704833653320446 4.043693511121732 -7.423866574074589e-05 -2.4746221913581962e-05 -7.423866574074589e-05 8.255859301031128" energy=-78271.0062428 pbc="T T T"
Ti       2.80512989       3.21069179       1.13623024       0.01230984      -0.01126969      -0.00006000 
Ti       8.41563359       3.21087087       1.13623012       0.01085984      -0.01315969      -0.00051000 
Ti       0.00003313       8.06961481       1.13623020       0.00233984      -0.01104969       0.00002000 
Ti       5.61053683       8.06979390       1.13623007       0.00290984      -0.00715969      -0.00032000 
Ti       2.80512978       3.21069168       5.68106995       0.00130984      -0.01197969       0.00011000 
Ti       8.41563349       3.21087077       5.68106983       0.00515984      -0.01053969       0.00049000 
Ti       0.00003303       8.06961471       5.68106991       0.00277984      -0.00729969      -0.00004000 
Ti       5.61053673       8.06979380       5.68106978       0.00334984      -0.00632969       0.00031000 
Ti      -1.37760341       4.03475365       3.40864563       0.01626984      -0.01143969      -0.00849000 
Ti       4.23290029       4.03493274       3.40864550       0.00761984      -0.00435969       0.00022000 
Ti      -4.18270017       8.89367668       3.40864558       0.00691984      -0.00200969       0.00123000 
Ti       1.42780354       8.89385577       3.40864546       0.01124984      -0.00394969       0.00084000 
Ti      -1.37760351       4.03475355       7.95349443       0.01577984      -0.01156969       0.00853000 
Ti       4.23290019       4.03493264       7.95349430       0.00788984      -0.00438969      -0.00023000 
Ti      -4.18270027       8.89367658       7.95349438       0.00644984      -0.00191969      -0.00120000 
Ti       1.42780343       8.89385567       7.95349426       0.01144984      -0.00364969      -0.00083000 
Ti       1.37796181       4.03460838       3.40864557      -0.01108016      -0.00428969      -0.00029000 
Ti       6.98847674       4.03478747       3.40864544      -0.00803016      -0.00114969       0.00005000 
Ti      -1.42712372       8.89353141       3.40864552      -0.01229016      -0.00006969       0.00111000 
Ti       4.18337998       8.89371049       3.40864540      -0.00725016       0.00096031       0.00055000 
Ti       1.37796171       4.03460828       7.95349437      -0.01120016      -0.00454969       0.00027000 
Ti       6.98847664       4.03478736       7.95349424      -0.00784016      -0.00124969      -0.00007000 
Ti      -1.42712382       8.89353130       7.95349432      -0.01231016       0.00004031      -0.00114000 
Ti       4.18337988       8.89371039       7.95349419      -0.00718016       0.00115031      -0.00052000 
Ti       1.42742820       0.82450335       1.13623033       0.01396984      -0.01382969      -0.00017000 
Ti       7.03793190       0.82468244       1.13623020       0.01145984       0.00383031      -0.00042000 
Ti      -1.37766856       5.68342638       1.13623028       0.01804984      -0.01399969      -0.00011000 
Ti       4.23283515       5.68360547       1.13623016       0.00911984       0.00382031      -0.00011000 
Ti       1.42743371       0.82449354       5.68107913       0.00713984       0.00153031       0.00017000 
Ti       7.03793741       0.82467262       5.68106991       0.01168984       0.00139031       0.00048000 
Ti      -1.37766305       5.68341656       5.68107908       0.00783984      -0.00002969       0.00007000 
Ti       4.23283505       5.68360537       5.68106987       0.01032984       0.00426031       0.00015000 
Ti       4.18302148       0.82436780       1.13623027      -0.01019016       0.00565031      -0.00012000 
Ti       9.79352518       0.82454689       1.13623014      -0.00689016      -0.00087969      -0.00047000 
Ti       1.37792472       5.68329083       1.13623022      -0.01159016      -0.00670969       0.00008000 
Ti       6.98842842       5.68346992       1.13623010      -0.00955016       0.00651031      -0.00028000 
Ti       4.18302138       0.82436770       5.68107907      -0.01174016       0.00472031       0.00008000 
Ti       9.79352508       0.82454679       5.68106985      -0.00557016       0.00490031       0.00047000 
Ti       1.37792462       5.68329073       5.68106993      -0.00757016       0.00380031      -0.00006000 
Ti       6.98842832       5.68346981       5.68106980      -0.00963016       0.00692031       0.00026000 
Ti       0.00029379       1.64845882       3.40864565      -0.00311016       0.00001031       0.00891000 
Ti       5.61080872       1.64863791       3.40864553      -0.00355016       0.00709031       0.00033000 
Ti      -2.80479174       6.50738185       3.40864561      -0.00522016       0.00963031       0.00003000 
Ti       2.80571196       6.50756094       3.40864548      -0.00077016       0.00946031      -0.00069000 
Ti       0.00029369       1.64845872       7.95349445      -0.00341016      -0.00020969      -0.00887000 
Ti       5.61080862       1.64863781       7.95349432      -0.00323016       0.00736031      -0.00032000 
Ti      -2.80479184       6.50738175       7.95349440      -0.00550016       0.00929031      -0.00004000 
Ti       2.80571186       6.50756083       7.95349428      -0.00059016       0.00983031       0.00066000 
Al       0.00542185       3.23050493       1.13623031      -0.04796016       0.07763031      -0.00004000 
Al       5.61092687       3.23934262       1.13623018      -0.00329016       0.00198031      -0.00020000 
Al      -2.80467359       8.09808656       1.13623026      -0.00469016       0.00176031       0.00004000 
Al       2.80582450       8.09827537       1.13623013      -0.00317016       0.00194031      -0.00008000 
Al       0.00042306       3.23916343       5.68107910      -0.00448016       0.00201031       0.00003000 
Al       5.61092677       3.23934252       5.68106989      -0.00382016       0.00184031       0.00017000 
Al      -2.80467369       8.09808646       5.68107906      -0.00512016       0.00286031      -0.00005000 
Al       2.80583001       8.09826555       5.68106984      -0.00308016       0.00271031       0.00008000 
Al       2.80497246       1.61995791       3.40864559       0.00420984      -0.00378969       0.00069000 
Al       8.41547616       1.62013700       3.40864546       0.00539984      -0.00310969       0.00004000 
Al      -0.00012430       6.47888094       3.40864554       0.00440984      -0.00419969      -0.00038000 
Al       5.61037941       6.47906003       3.40864542       0.00429984      -0.00183969       0.00009000 
Al       2.80497236       1.61995781       7.95349439       0.00432984      -0.00368969      -0.00069000 
Al       8.41546484       1.62013690       7.95349426       0.00529984      -0.00308969      -0.00006000 
Al      -0.00012440       6.47888084       7.95349434       0.00436984      -0.00421969       0.00040000 
Al       5.61037931       6.47905993       7.95349422       0.00433984      -0.00190969      -0.00010000 
