64
Lattice="11.221007406739036 0.0003581763943235956 -2.5131323619446874e-07 -5.610193513512995 9.717846055813132 -9.1990921583057e-08 -2.0343678424995805e-07 -2.0344042297106932e-07 9.089697596676826" Properties=species:S:1:pos:R:3:force:R:3 virial="4.049032508499586 -0.03167516404938492 0.0005444168820988032 -0.03167516404938492 4.012810226173581 0.001311549761419844 0.0005444168820988032 0.001311549761419844 8.229040583032283" energy=-78270.973539 pbc="T T T"
Ti       2.80512989       3.21069179       1.13623024       0.00354047      -0.01786031       0.00489984 
Ti       8.41563359       3.21087087       1.13623012       0.00186047      -0.01018031      -0.00153016 
Ti       0.00003313       8.06961481       1.13623020       0.00328047      -0.00785031      -0.00468016 
Ti       5.61053683       8.06979390       1.13623007       0.00449047      -0.00711031      -0.00124016 
Ti       2.80512978       3.21069168       5.68106995       0.00326047      -0.00610031       0.00985984 
Ti       8.41563349       3.21087077       5.68106983       0.00238047      -0.01268031       0.00115984 
Ti       0.00003303       8.06961471       5.68106991       0.00230047      -0.00671031       0.00454984 
Ti       5.61053673       8.06979380       5.68106978       0.00443047      -0.00695031       0.00131984 
Ti      -1.37760341       4.03475365       3.40864563       0.00899047      -0.00508031      -0.00144016 
Ti       4.23290029       4.03493274       3.40864550       0.01424047       0.00617969       0.00004984 
Ti      -4.18270017       8.89367668       3.40864558       0.00920047      -0.00370031       0.00151984 
Ti       1.42780354       8.89385577       3.40864546       0.01270047      -0.00673031       0.00003984 
Ti      -1.37760351       4.03475355       7.95349443       0.00934047      -0.00369031       0.00221984 
Ti       4.23290019       4.03493264       7.95349430       0.00925047      -0.00329031       0.00146984 
Ti      -4.18270027       8.89367658       7.95349438       0.00725047      -0.00575031      -0.00009016 
Ti       1.42780343       8.89385567       7.95349426       0.00889047      -0.00408031      -0.00050016 
Ti       1.37796181       4.03460838       3.40864557      -0.00484953      -0.00780031       0.00031984 
Ti       6.98847674       4.03478747       3.40864544      -0.00946953       0.00324969      -0.00094016 
Ti      -1.42712372       8.89353141       3.40864552      -0.01070953      -0.00598031       0.00266984 
Ti       4.18337998       8.89371049       3.40864540      -0.00591953      -0.00360031       0.00038984 
Ti       1.37796171       4.03460828       7.95349437      -0.00936953      -0.00135031       0.00120984 
Ti       6.98847664       4.03478736       7.95349424      -0.01062953       0.00080969       0.00159984 
Ti      -1.42712382       8.89353130       7.95349432      -0.01223953      -0.00164031      -0.00119016 
Ti       4.18337988       8.89371039       7.95349419      -0.00733953      -0.00276031      -0.00105016 
Ti       1.42742820       0.82450335       1.13623033       0.02048047       0.00171969       0.01105984 
Ti       7.03793190       0.82468244       1.13623020       0.00999047      -0.00064031      -0.00448016 
Ti      -1.37766856       5.68342638       1.13623028       0.00694047       0.00424969      -0.00234016 
Ti       4.23283515       5.68360547       1.13623016       0.01050047       0.00508969      -0.00115016 
Ti       1.42743371       0.82449354       5.68107913       0.00832047      -0.00569031       0.00353984 
Ti       7.03793741       0.82467262       5.68106991       0.01072047      -0.00159031       0.00459984 
Ti      -1.37766305       5.68341656       5.68107908       0.00868047       0.00688969       0.00174984 
Ti       4.23283505       5.68360537       5.68106987       0.01178047       0.00618969       0.00106984 
Ti       4.18302148       0.82436780       1.13623027      -0.01114953       0.00294969      -0.00318016 
Ti       9.79352518       0.82454689       1.13623014      -0.00853953       0.00015969      -0.00171016 
Ti       1.37792472       5.68329083       1.13623022      -0.00731953       0.00680969      -0.00164016 
Ti       6.98842842       5.68346992       1.13623010      -0.00824953       0.00934969      -0.00171016 
Ti       4.18302138       0.82436770       5.68107907       0.00064047      -0.00583031       0.01785984 
Ti       9.79352508       0.82454679       5.68106985      -0.00734953      -0.00053031       0.00145984 
Ti       1.37792462       5.68329073       5.68106993      -0.00886953       0.00889969       0.00171984 
Ti       6.98842832       5.68346981       5.68106980      -0.00924953       0.01034969       0.00121984 
Ti       0.00029379       1.64845882       3.40864565       0.01036047       0.00490969       0.00196984 
Ti       5.61080872       1.64863791       3.40864553       0.00947047       0.00786969       0.00092984 
Ti      -2.80479174       6.50738185       3.40864561      -0.00710953       0.01246969      -0.00024016 
Ti       2.80571196       6.50756094       3.40864548      -0.00077953       0.01182969      -0.00074016 
Ti       0.00029369       1.64845872       7.95349445      -0.00127953       0.00328969      -0.00046016 
Ti       5.61080862       1.64863781       7.95349432      -0.00362953       0.00416969       0.00072984 
Ti      -2.80479184       6.50738175       7.95349440      -0.00498953       0.01414969       0.00059984 
Ti       2.80571186       6.50756083       7.95349428      -0.00251953       0.01338969       0.00010984 
Al       0.00042316       3.23916354       1.13623031      -0.00282953       0.00173969      -0.00005016 
Al       5.61092687       3.23934262       1.13623018      -0.00365953       0.00303969      -0.00084016 
Al      -2.80467359       8.09808656       1.13623026      -0.00490953       0.00307969      -0.00032016 
Al       2.80582450       8.09827537       1.13623013      -0.00349953       0.00269969      -0.00029016 
Al       0.00042306       3.23916343       5.68107910      -0.00352953       0.00174969       0.00047984 
Al       5.61092677       3.23934252       5.68106989      -0.00327953       0.00316969       0.00134984 
Al      -2.80467369       8.09808646       5.68107906      -0.00443953       0.00262969       0.00078984 
Al       2.80583001       8.09826555       5.68106984      -0.00362953       0.00293969       0.00075984 
Al       2.81273740       1.61995816       3.41494475      -0.06467953      -0.00344031      -0.05579016 
Al       8.41547616       1.62013700       3.40864546       0.00603047      -0.00353031      -0.00049016 
Al      -0.00012430       6.47888094       3.40864554       0.00476047      -0.00232031      -0.00016016 
Al       5.61037941       6.47906003       3.40864542       0.00477047      -0.00096031      -0.00047016 
Al       2.80497236       1.61995781       7.95349439       0.00359047      -0.00358031       0.00210984 
Al       8.41546484       1.62013690       7.95349426       0.00432047      -0.00374031       0.00058984 
Al      -0.00012440       6.47888084       7.95349434       0.00455047      -0.00151031       0.00023984 
Al       5.61037931       6.47905993       7.95349422       0.00470047      -0.00176031       0.00050984 
