64
Lattice="11.221007406739036 0.0003581763943235956 -2.5131323619446874e-07 -5.610193513512995 9.717846055813132 -9.1990921583057e-08 -2.0343678424995805e-07 -2.0344042297106932e-07 9.089697596676826" Properties=species:S:1:pos:R:3:force:R:3 virial="4.054872616871192 -0.033828085355866545 0.001435280870987754 -0.033828085355866545 4.036015995773043 0.0011692589854167478 0.001435280870987754 0.0011692589854167478 8.23785023803352" energy=-78271.0063256 pbc="T T T"
Ti       2.80512989       3.21069179       1.13623024       0.00224016      -0.01363953       0.00755000 
Ti       8.41563359       3.21087087       1.13623012       0.00423016      -0.01240953       0.00020000 
Ti       0.00003313       8.06961481       1.13623020       0.00776016      -0.00864953       0.00048000 
Ti       5.61053683       8.06979390       1.13623007      -0.00089984      -0.00722953       0.00206000 
Ti       2.80512978       3.21069168       5.68106995       0.00184016      -0.00125953       0.00707000 
Ti       8.41563349       3.21087077       5.68106983       0.00393016      -0.01256953      -0.00087000 
Ti       0.00003303       8.06961471       5.68106991       0.00614016      -0.00972953      -0.00053000 
Ti       5.61053673       8.06979380       5.68106978       0.00034016      -0.00778953      -0.00205000 
Ti      -1.37760341       4.03475365       3.40864563       0.01268016      -0.00772953      -0.00100000 
Ti       4.23290029       4.03493274       3.40864550       0.00973016       0.00799047       0.00058000 
Ti      -4.18270017       8.89367668       3.40864558       0.00589016      -0.00136953       0.00155000 
Ti       1.42780354       8.89385577       3.40864546       0.01395016      -0.00997953      -0.00183000 
Ti      -1.37760351       4.03475355       7.95349443       0.01126016      -0.00397953       0.00160000 
Ti       4.23290019       4.03493264       7.95349430       0.00550016      -0.00042953       0.00091000 
Ti      -4.18270027       8.89367658       7.95349438       0.00371016      -0.00706953      -0.00001000 
Ti       1.42780343       8.89385567       7.95349426       0.01331016      -0.00857953       0.00133000 
Ti       1.37796181       4.03460838       3.40864557      -0.00398984      -0.00805953       0.00167000 
Ti       6.98847674       4.03478747       3.40864544      -0.01030984       0.00264047      -0.00010000 
Ti      -1.42712372       8.89353141       3.40864552      -0.00742984      -0.00687953       0.00211000 
Ti       4.18337998       8.89371049       3.40864540      -0.00643984      -0.00371953      -0.00105000 
Ti       1.37796171       4.03460828       7.95349437      -0.00698984       0.00246047      -0.00012000 
Ti       6.98847664       4.03478736       7.95349424      -0.01253984      -0.00127953       0.00067000 
Ti      -1.42712382       8.89353130       7.95349432      -0.00871984      -0.00212953      -0.00049000 
Ti       4.18337988       8.89371039       7.95349419      -0.01051984      -0.00664953       0.00057000 
Ti       1.42742820       0.82450335       1.13623033       0.01774016       0.00616047       0.01786000 
Ti       7.03793190       0.82468244       1.13623020       0.01155016      -0.00249953      -0.00180000 
Ti      -1.37766856       5.68342638       1.13623028       0.01158016       0.00323047      -0.00018000 
Ti       4.23283515       5.68360547       1.13623016       0.00594016       0.00608047      -0.00079000 
Ti       1.42743371       0.82449354       5.68107913       0.00759016      -0.00041953      -0.00348000 
Ti       7.03793741       0.82467262       5.68106991       0.01171016      -0.00173953       0.00196000 
Ti      -1.37766305       5.68341656       5.68107908       0.01244016       0.00477047      -0.00038000 
Ti       4.23283505       5.68360537       5.68106987       0.00738016       0.00645047       0.00066000 
Ti       4.18302148       0.82436780       1.13623027      -0.01149984       0.00551047       0.00004000 
Ti       9.79352518       0.82454689       1.13623014      -0.00758984      -0.00136953       0.00312000 
Ti       1.37792472       5.68329083       1.13623022      -0.00316984       0.00802047      -0.00043000 
Ti       6.98842842       5.68346992       1.13623010      -0.01249984       0.00920047       0.00081000 
Ti       4.18302138       0.82436770       5.68107907       0.00006016      -0.00186953       0.01483000 
Ti       9.79352508       0.82454679       5.68106985      -0.00672984      -0.00090953      -0.00295000 
Ti       1.37792462       5.68329073       5.68106993      -0.00433984       0.00749047       0.00033000 
Ti       6.98842832       5.68346981       5.68106980      -0.01237984       0.00976047      -0.00144000 
Ti       0.00029379       1.64845882       3.40864565       0.00979016       0.00521047       0.00094000 
Ti       5.61080872       1.64863791       3.40864553       0.00952016       0.00782047       0.00113000 
Ti      -2.80479174       6.50738185       3.40864561      -0.00650984       0.01216047       0.00025000 
Ti       2.80571196       6.50756094       3.40864548      -0.00104984       0.01070047      -0.00120000 
Ti       0.00029369       1.64845872       7.95349445      -0.00351984       0.00747047       0.00053000 
Ti       5.61080862       1.64863781       7.95349432      -0.00300984       0.00740047       0.00066000 
Ti      -2.80479184       6.50738175       7.95349440      -0.00428984       0.01014047       0.00015000 
Ti       2.80571186       6.50756083       7.95349428      -0.00179984       0.00925047       0.00059000 
Al       0.00042316       3.23916354       1.13623031      -0.00257984       0.00178047       0.00124000 
Al       5.61092687       3.23934262       1.13623018      -0.00454984       0.00304047      -0.00062000 
Al      -2.80467359       8.09808656       1.13623026      -0.00457984       0.00292047       0.00082000 
Al       2.80582450       8.09827537       1.13623013      -0.00364984       0.00225047       0.00019000 
Al       0.00042306       3.23916343       5.68107910      -0.00282984       0.00212047      -0.00067000 
Al       5.61092677       3.23934252       5.68106989      -0.00428984       0.00338047       0.00093000 
Al      -2.80467369       8.09808646       5.68107906      -0.00456984       0.00263047      -0.00037000 
Al       2.80583001       8.09826555       5.68106984      -0.00365984       0.00203047       0.00030000 
Al       2.81273740       1.61995816       3.41494475      -0.06533984      -0.00251953      -0.05532000 
Al       8.41547616       1.62013700       3.40864546       0.00655016      -0.00392953      -0.00060000 
Al      -0.00012430       6.47888094       3.40864554       0.00568016      -0.00239953      -0.00050000 
Al       5.61037941       6.47906003       3.40864542       0.00424016      -0.00115953      -0.00023000 
Al       2.80497236       1.61995781       7.95349439       0.00392016      -0.00197953       0.00177000 
Al       8.41546484       1.62013690       7.95349426       0.00470016      -0.00422953       0.00081000 
Al      -0.00012440       6.47888084       7.95349434       0.00566016      -0.00233953       0.00048000 
Al       5.61037931       6.47905993       7.95349422       0.00371016      -0.00157953       0.00026000 
