64
Lattice="11.221007406739036 0.0003581763943235956 -2.5131323619446874e-07 -5.610193513512995 9.717846055813132 -9.1990921583057e-08 -2.0343678424995805e-07 -2.0344042297106932e-07 9.089697596676826" Properties=species:S:1:pos:R:3:force:R:3 virial="4.118965331627368 -0.03891343395910763 0.000680521102623504 -0.03891343395910763 4.075059347397196 -0.000352633662268543 0.000680521102623504 -0.000352633662268543 8.258853593882671" energy=-78271.0062484 pbc="T T T"
Ti       2.80512989       3.21069179       1.13623024       0.00351063       0.00163953      -0.00790016 
Ti       8.41563359       3.21087087       1.13623012       0.00343063      -0.00878047       0.00013984 
Ti       0.00003313       8.06961481       1.13623020       0.00398062      -0.01219047       0.00067984 
Ti       5.61053683       8.06979390       1.13623007       0.00182062      -0.01275047      -0.00113016 
Ti       2.80512978       3.21069168       5.68106995       0.00284063      -0.01167047      -0.00680016 
Ti       8.41563349       3.21087077       5.68106983       0.00367063      -0.00773047       0.00036984 
Ti       0.00003303       8.06961471       5.68106991       0.00439062      -0.01249047      -0.00057016 
Ti       5.61053673       8.06979380       5.68106978       0.00185063      -0.01165047       0.00115984 
Ti      -1.37760341       4.03475365       3.40864563       0.01078063      -0.00319047       0.00084984 
Ti       4.23290029       4.03493274       3.40864550       0.00112062      -0.01021047       0.00147984 
Ti      -4.18270017       8.89367668       3.40864558       0.00644063      -0.00720047       0.00069984 
Ti       1.42780354       8.89385577       3.40864546       0.00770063      -0.00836047       0.00121984 
Ti      -1.37760351       4.03475355       7.95349443       0.01249062      -0.00467047      -0.00143016 
Ti       4.23290019       4.03493264       7.95349430       0.00468062      -0.00227047      -0.00297016 
Ti      -4.18270027       8.89367658       7.95349438       0.00799063      -0.00330047      -0.00226016 
Ti       1.42780343       8.89385567       7.95349426       0.00973063      -0.00947047      -0.00073016 
Ti       1.37796181       4.03460838       3.40864557      -0.01072937       0.00968953       0.00176984 
Ti       6.98847674       4.03478747       3.40864544      -0.01398938      -0.00267047       0.00049984 
Ti      -1.42712372       8.89353141       3.40864552      -0.01073937       0.00404953       0.00017984 
Ti       4.18337998       8.89371049       3.40864540      -0.01230937      -0.00494047       0.00147984 
Ti       1.37796171       4.03460828       7.95349437      -0.00636938       0.00245953      -0.00339016 
Ti       6.98847664       4.03478736       7.95349424      -0.01292937      -0.00116047      -0.00108016 
Ti      -1.42712382       8.89353130       7.95349432      -0.00862937       0.00013953      -0.00175016 
Ti       4.18337988       8.89371039       7.95349419      -0.01100938      -0.00463047      -0.00096016 
Ti       1.42742820       0.82450335       1.13623033       0.00036062      -0.00226047      -0.01519016 
Ti       7.03793190       0.82468244       1.13623020       0.00865063       0.00155953       0.00076984 
Ti      -1.37766856       5.68342638       1.13623028       0.01392063       0.00165953       0.00010984 
Ti       4.23283515       5.68360547       1.13623016       0.00613062       0.00092953      -0.00020016 
Ti       1.42743371       0.82449354       5.68107913       0.01214063       0.00506953       0.00018984 
Ti       7.03793741       0.82467262       5.68106991       0.00656062       0.00054953      -0.00084016 
Ti      -1.37766305       5.68341656       5.68107908       0.01457063       0.00124953       0.00037984 
Ti       4.23283505       5.68360537       5.68106987       0.00369063      -0.00036047       0.00032984 
Ti       4.18302148       0.82436780       1.13623027      -0.00746938       0.00562953       0.00023984 
Ti       9.79352518       0.82454689       1.13623014      -0.00843937       0.00548953      -0.00120016 
Ti       1.37792472       5.68329083       1.13623022      -0.00648938       0.00450953      -0.00107016 
Ti       6.98842842       5.68346992       1.13623010      -0.01150937       0.00397953       0.00017984 
Ti       4.18302138       0.82436770       5.68107907      -0.02034937       0.01354953      -0.01452016 
Ti       9.79352508       0.82454679       5.68106985      -0.00586938       0.00446953       0.00136984 
Ti       1.37792462       5.68329073       5.68106993      -0.00459938       0.00314953       0.00121984 
Ti       6.98842832       5.68346981       5.68106980      -0.01205937       0.00425953       0.00030984 
Ti       0.00029379       1.64845882       3.40864565      -0.01435937       0.01021953       0.00062984 
Ti       5.61080872       1.64863791       3.40864553      -0.02042937       0.01107953       0.00014984 
Ti      -2.80479174       6.50738185       3.40864561      -0.00142938       0.00847953       0.00092984 
Ti       2.80571196       6.50756094       3.40864548      -0.00451937       0.00491953       0.00277984 
Ti       0.00029369       1.64845872       7.95349445      -0.00067938       0.01097953      -0.00225016 
Ti       5.61080862       1.64863781       7.95349432      -0.00725938       0.01081953      -0.00172016 
Ti      -2.80479184       6.50738175       7.95349440      -0.00309937       0.00828953      -0.00145016 
Ti       2.80571186       6.50756083       7.95349428      -0.00454938       0.00472953      -0.00233016 
Al       0.00042316       3.23916354       1.13623031      -0.00418938       0.00356953      -0.00093016 
Al       5.61092687       3.23934262       1.13623018      -0.00571938       0.00289953       0.00033984 
Al      -2.80467359       8.09808656       1.13623026      -0.00351937       0.00244953      -0.00016016 
Al       2.80582450       8.09827537       1.13623013      -0.00440938       0.00111953      -0.00050016 
Al       0.00042306       3.23916343       5.68107910      -0.00357937       0.00294953       0.00040984 
Al       5.61092677       3.23934252       5.68106989      -0.00614938       0.00232953      -0.00074016 
Al      -2.80467369       8.09808646       5.68107906      -0.00380937       0.00343953      -0.00025016 
Al       2.80583001       8.09826555       5.68106984      -0.00433938       0.00152953      -0.00010016 
Al       2.79719630       1.61995767       3.40235552       0.07311062      -0.00186047       0.05642984 
Al       8.41547616       1.62013700       3.40864546       0.00329063      -0.00247047       0.00028984 
Al      -0.00012430       6.47888094       3.40864554       0.00510063      -0.00269047       0.00076984 
Al       5.61037941       6.47906003       3.40864542       0.00325063      -0.00383047       0.00075984 
Al       2.80497236       1.61995781       7.95349439       0.00489063      -0.00191047      -0.00279016 
Al       8.41546484       1.62013690       7.95349426       0.00484062      -0.00260047      -0.00033016 
Al      -0.00012440       6.47888084       7.95349434       0.00520062      -0.00322047      -0.00077016 
Al       5.61037931       6.47905993       7.95349422       0.00339062      -0.00329047      -0.00080016 
