64
Lattice="11.221007406739036 0.0003581763943235956 -2.5131323619446874e-07 -5.610193513512995 9.717846055813132 -9.1990921583057e-08 -2.0343678424995805e-07 -2.0344042297106932e-07 9.089697596676826" Properties=species:S:1:pos:R:3:force:R:3 virial="4.034215708128829 -0.01683361745671413 0.000290768107484588 -0.01683361745671413 4.009203464329677 -0.0007795059902778318 0.000290768107484588 -0.0007795059902778318 8.205599724324642" energy=-78270.9734679 pbc="T T T"
Ti       2.80512989       3.21069179       1.13623024       0.00254984      -0.00529969      -0.00867078 
Ti       8.41563359       3.21087087       1.13623012       0.00399984      -0.01296969       0.00003922 
Ti       0.00003313       8.06961481       1.13623020       0.00216984      -0.00655969       0.00025922 
Ti       5.61053683       8.06979390       1.13623007       0.00346984      -0.00750969      -0.00196078 
Ti       2.80512978       3.21069168       5.68106995       0.00215984      -0.01739969      -0.00598078 
Ti       8.41563349       3.21087077       5.68106983       0.00438984      -0.01207969       0.00050922 
Ti       0.00003303       8.06961471       5.68106991       0.00258984      -0.00880969      -0.00023078 
Ti       5.61053673       8.06979380       5.68106978       0.00363984      -0.00727969       0.00196922 
Ti      -1.37760341       4.03475365       3.40864563       0.01321984      -0.00785969      -0.00135078 
Ti       4.23290029       4.03493274       3.40864550      -0.00070016      -0.01626969      -0.00137078 
Ti      -4.18270017       8.89367668       3.40864558       0.00594984      -0.00171969      -0.00093078 
Ti       1.42780354       8.89385577       3.40864546       0.00888984      -0.00414969      -0.00187078 
Ti      -1.37760351       4.03475355       7.95349443       0.01428984      -0.00772969       0.00069922 
Ti       4.23290019       4.03493264       7.95349430       0.00189984      -0.00736969      -0.00010078 
Ti      -4.18270027       8.89367658       7.95349438       0.00773984       0.00084031      -0.00060078 
Ti       1.42780343       8.89385567       7.95349426       0.01114984      -0.00600969       0.00239922 
Ti       1.37796181       4.03460838       3.40864557      -0.00995016       0.00179031      -0.00162078 
Ti       6.98847674       4.03478747       3.40864544      -0.01506016      -0.00620969      -0.00150078 
Ti      -1.42712372       8.89353141       3.40864552      -0.01333016       0.00859031      -0.00277078 
Ti       4.18337998       8.89371049       3.40864540      -0.00993016       0.00027031       0.00029922 
Ti       1.37796171       4.03460828       7.95349437      -0.00442016      -0.00375969       0.00000922 
Ti       6.98847664       4.03478736       7.95349424      -0.01352016      -0.00355969       0.00092922 
Ti      -1.42712382       8.89353130       7.95349432      -0.01156016       0.00487031       0.00150922 
Ti       4.18337988       8.89371039       7.95349419      -0.00912016      -0.00181969       0.00017922 
Ti       1.42742820       0.82450335       1.13623033       0.00167984      -0.00062969      -0.01544078 
Ti       7.03793190       0.82468244       1.13623020       0.00622984       0.00273031       0.00040922 
Ti      -1.37766856       5.68342638       1.13623028       0.01358984       0.00173031      -0.00079078 
Ti       4.23283515       5.68360547       1.13623016       0.00732984      -0.00276969      -0.00143078 
Ti       1.42743371       0.82449354       5.68107913       0.01253984       0.00532031       0.00035922 
Ti       7.03793741       0.82467262       5.68106991       0.00720984       0.00289031      -0.00046078 
Ti      -1.37766305       5.68341656       5.68107908       0.01373984       0.00156031       0.00132922 
Ti       4.23283505       5.68360537       5.68106987       0.00707984      -0.00161969       0.00147922 
Ti       4.18302148       0.82436780       1.13623027      -0.01036016       0.00830031      -0.00034078 
Ti       9.79352518       0.82454689       1.13623014      -0.00573016       0.00654031      -0.00053078 
Ti       1.37792472       5.68329083       1.13623022      -0.00684016      -0.00001969      -0.00286078 
Ti       6.98842842       5.68346992       1.13623010      -0.01236016       0.00482031      -0.00094078 
Ti       4.18302138       0.82436770       5.68107907      -0.02395016       0.01585031      -0.01410078 
Ti       9.79352508       0.82454679       5.68106985      -0.00382016       0.00482031       0.00057922 
Ti       1.37792462       5.68329073       5.68106993      -0.00519016      -0.00043969       0.00263922 
Ti       6.98842832       5.68346981       5.68106980      -0.01368016       0.00661031       0.00159922 
Ti       0.00029379       1.64845882       3.40864565      -0.01210016       0.00774031      -0.00196078 
Ti       5.61080872       1.64863791       3.40864553      -0.02203016       0.00950031      -0.00296078 
Ti      -2.80479174       6.50738185       3.40864561      -0.00228016       0.01278031      -0.00083078 
Ti       2.80571196       6.50756094       3.40864548      -0.00310016       0.00709031       0.00074922 
Ti       0.00029369       1.64845872       7.95349445       0.00238984       0.00931031       0.00039922 
Ti       5.61080862       1.64863781       7.95349432      -0.00920016       0.00850031       0.00148922 
Ti      -2.80479184       6.50738175       7.95349440      -0.00442016       0.01202031       0.00034922 
Ti       2.80571186       6.50756083       7.95349428      -0.00335016       0.00569031      -0.00028078 
Al       0.00042316       3.23916354       1.13623031      -0.00404016       0.00231031      -0.00083078 
Al       5.61092687       3.23934262       1.13623018      -0.00597016       0.00142031       0.00001922 
Al      -2.80467359       8.09808656       1.13623026      -0.00432016       0.00439031      -0.00058078 
Al       2.80582450       8.09827537       1.13623013      -0.00409016       0.00243031      -0.00072078 
Al       0.00042306       3.23916343       5.68107910      -0.00316016       0.00214031       0.00033922 
Al       5.61092677       3.23934252       5.68106989      -0.00682016       0.00127031      -0.00042078 
Al      -2.80467369       8.09808646       5.68107906      -0.00460016       0.00525031       0.00015922 
Al       2.80583001       8.09826555       5.68106984      -0.00338016       0.00174031       0.00011922 
Al       2.79719630       1.61995767       3.40235552       0.07251984      -0.00185969       0.05559922 
Al       8.41547616       1.62013700       3.40864546       0.00391984      -0.00350969      -0.00052078 
Al      -0.00012430       6.47888094       3.40864554       0.00527984      -0.00237969      -0.00016078 
Al       5.61037941       6.47906003       3.40864542       0.00264984      -0.00294969       0.00035922 
Al       2.80497236       1.61995781       7.95349439       0.00450984      -0.00175969      -0.00195078 
Al       8.41546484       1.62013690       7.95349426       0.00495984      -0.00341969       0.00056922 
Al      -0.00012440       6.47888084       7.95349434       0.00575984      -0.00307969       0.00009922 
Al       5.61037931       6.47905993       7.95349422       0.00288984      -0.00231969      -0.00037078 
