64
Lattice="11.221007406739036 0.0003581763943235956 -2.5131323619446874e-07 -5.610193513512995 9.717846055813132 -9.1990921583057e-08 -2.0343678424995805e-07 -2.0344042297106932e-07 9.089697596676826" Properties=species:S:1:pos:R:3:force:R:3 virial="4.074892310399279 -0.04089931826767259 6.1865554783954905e-06 -0.04089931826767259 3.9490268391913235 -4.330588834876844e-05 6.1865554783954905e-06 -4.330588834876844e-05 8.22951694780412" energy=-78270.9733925 pbc="T T T"
Ti       2.80013120       3.21935039       1.13623024       0.04986094      -0.08313953       0.00176016 
Ti       8.41563359       3.21087087       1.13623012       0.00374094      -0.00866953       0.00242016 
Ti       0.00003313       8.06961481       1.13623020       0.00374094      -0.00666953       0.00059016 
Ti       5.61053683       8.06979390       1.13623007       0.00479094      -0.00945953      -0.00082984 
Ti       2.80512978       3.21069168       5.68106995       0.00934094      -0.01197953      -0.00175984 
Ti       8.41563349       3.21087077       5.68106983       0.00213094      -0.00992953      -0.00243984 
Ti       0.00003303       8.06961471       5.68106991       0.00434094      -0.00683953      -0.00058984 
Ti       5.61053673       8.06979380       5.68106978       0.00434094      -0.00913953       0.00084016 
Ti      -1.37760341       4.03475365       3.40864563       0.00649094      -0.00173953      -0.00001984 
Ti       4.23290029       4.03493274       3.40864550       0.00934094      -0.00207953      -0.00053984 
Ti      -4.18270017       8.89367668       3.40864558       0.00958094      -0.00437953      -0.00054984 
Ti       1.42780354       8.89385577       3.40864546       0.00805094      -0.00365953       0.00092016 
Ti      -1.37760351       4.03475355       7.95349443       0.00696094      -0.00175953       0.00005016 
Ti       4.23290019       4.03493264       7.95349430       0.00901094      -0.00139953       0.00049016 
Ti      -4.18270027       8.89367658       7.95349438       0.00923094      -0.00442953       0.00051016 
Ti       1.42780343       8.89385567       7.95349426       0.00855094      -0.00404953      -0.00091984 
Ti       1.37796181       4.03460838       3.40864557      -0.01270906       0.00221047       0.00782016 
Ti       6.98847674       4.03478747       3.40864544      -0.01505906      -0.00213953      -0.00216984 
Ti      -1.42712372       8.89353141       3.40864552      -0.01142906       0.00080047      -0.00198984 
Ti       4.18337998       8.89371049       3.40864540      -0.00974906      -0.00430953       0.00011016 
Ti       1.37796171       4.03460828       7.95349437      -0.01256906       0.00196047      -0.00780984 
Ti       6.98847664       4.03478736       7.95349424      -0.01474906      -0.00129953       0.00223016 
Ti      -1.42712382       8.89353130       7.95349432      -0.01317906       0.00047047       0.00199016 
Ti       4.18337988       8.89371039       7.95349419      -0.00856906      -0.00441953      -0.00008984 
Ti       1.42742820       0.82450335       1.13623033       0.00930094       0.00569047      -0.00050984 
Ti       7.03793190       0.82468244       1.13623020       0.00528094       0.00046047       0.00158016 
Ti      -1.37766856       5.68342638       1.13623028       0.00648094       0.00496047       0.00150016 
Ti       4.23283515       5.68360547       1.13623016       0.02041094       0.01291047       0.00171016 
Ti       1.42743371       0.82449354       5.68107913       0.01141094      -0.00234953       0.00052016 
Ti       7.03793741       0.82467262       5.68106991       0.00568094      -0.00029953      -0.00154984 
Ti      -1.37766305       5.68341656       5.68107908       0.00838094       0.00529047      -0.00148984 
Ti       4.23283505       5.68360537       5.68106987       0.00948094       0.00275047      -0.00168984 
Ti       4.18302148       0.82436780       1.13623027      -0.01379906       0.01955047       0.00104016 
Ti       9.79352518       0.82454689       1.13623014      -0.00948906       0.00112047       0.00048016 
Ti       1.37792472       5.68329083       1.13623022      -0.02285906       0.01883047       0.00119016 
Ti       6.98842842       5.68346992       1.13623010      -0.01050906       0.00726047       0.00171016 
Ti       4.18302138       0.82436770       5.68107907      -0.00745906       0.00503047      -0.00107984 
Ti       9.79352508       0.82454679       5.68106985      -0.00956906       0.00142047      -0.00048984 
Ti       1.37792462       5.68329073       5.68106993      -0.00871906       0.00974047      -0.00115984 
Ti       6.98842832       5.68346981       5.68106980      -0.01106906       0.00812047      -0.00172984 
Ti       0.00029379       1.64845882       3.40864565      -0.00218906       0.00448047      -0.00112984 
Ti       5.61080872       1.64863791       3.40864553      -0.00145906       0.00651047       0.00155016 
Ti      -2.80479174       6.50738185       3.40864561      -0.00264906       0.01107047      -0.00067984 
Ti       2.80571196       6.50756094       3.40864548       0.00037094       0.00788047      -0.00086984 
Ti       0.00029369       1.64845872       7.95349445      -0.00138906       0.00246047       0.00119016 
Ti       5.61080862       1.64863781       7.95349432      -0.00134906       0.00468047      -0.00154984 
Ti      -2.80479184       6.50738175       7.95349440      -0.00340906       0.01359047       0.00063016 
Ti       2.80571186       6.50756083       7.95349428       0.00058094       0.00934047       0.00082016 
Al       0.00042316       3.23916354       1.13623031      -0.01268906       0.00445047       0.00018016 
Al       5.61092687       3.23934262       1.13623018      -0.01430906       0.00207047       0.00039016 
Al      -2.80467359       8.09808656       1.13623026      -0.00406906       0.00400047      -0.00001984 
Al       2.80582450       8.09827537       1.13623013      -0.00438906       0.00297047       0.00003016 
Al       0.00042306       3.23916343       5.68107910      -0.00560906       0.00180047      -0.00019984 
Al       5.61092677       3.23934252       5.68106989      -0.00446906       0.00235047      -0.00036984 
Al      -2.80467369       8.09808646       5.68107906      -0.00485906       0.00236047       0.00001016 
Al       2.80583001       8.09826555       5.68106984      -0.00444906       0.00244047      -0.00003984 
Al       2.80497246       1.61995791       3.40864559       0.00471094       0.00362047      -0.00944984 
Al       8.41547616       1.62013700       3.40864546       0.00391094      -0.00254953       0.00002016 
Al      -0.00012430       6.47888094       3.40864554       0.00312094      -0.00198953       0.00064016 
Al       5.61037941       6.47906003       3.40864542       0.00425094      -0.00251953       0.00049016 
Al       2.80497236       1.61995781       7.95349439       0.00456094       0.00337047       0.00949016 
Al       8.41546484       1.62013690       7.95349426       0.00394094      -0.00280953       0.00001016 
Al      -0.00012440       6.47888084       7.95349434       0.00313094      -0.00182953      -0.00065984 
Al       5.61037931       6.47905993       7.95349422       0.00426094      -0.00218953      -0.00053984 
