64
Lattice="11.221007406739036 0.0003581763943235956 -2.5131323619446874e-07 -5.610193513512995 9.717846055813132 -9.1990921583057e-08 -2.0343678424995805e-07 -2.0344042297106932e-07 9.089697596676826" Properties=species:S:1:pos:R:3:force:R:3 virial="4.054860243760235 -0.01726048978472342 0.00010517144313272335 -0.01726048978472342 4.0497687086015155 -0.0001361042205247008 0.00010517144313272335 -0.0001361042205247008 8.213264866562374" energy=-78270.9734767 pbc="T T T"
Ti       2.80512989       3.21069179       1.13623024       0.00310984      -0.00120016      -0.01009984 
Ti       8.41563359       3.21087087       1.13623012       0.00447984      -0.01121016       0.00026016 
Ti       0.00003313       8.06961481       1.13623020       0.00428984      -0.01046016      -0.00048984 
Ti       5.61053683       8.06979390       1.13623007       0.00150984      -0.00940016      -0.00049984 
Ti       2.80512978       3.21069168       5.68106995       0.00229984      -0.00103016       0.01028016 
Ti       8.41563349       3.21087077       5.68106983       0.00470984      -0.00960016      -0.00006984 
Ti       0.00003303       8.06961471       5.68106991       0.00488984      -0.01044016       0.00064016 
Ti       5.61053673       8.06979380       5.68106978       0.00132984      -0.00875016       0.00051016 
Ti      -1.37760341       4.03475365       3.40864563       0.00949984      -0.00517016       0.00120016 
Ti       4.23290029       4.03493274       3.40864550       0.00924984       0.00229984      -0.00055984 
Ti      -4.18270017       8.89367668       3.40864558       0.01212984       0.00558984       0.00020016 
Ti       1.42780354       8.89385577       3.40864546       0.01051984      -0.00622016       0.00076016 
Ti      -1.37760351       4.03475355       7.95349443       0.01199984      -0.00513016      -0.00102984 
Ti       4.23290019       4.03493264       7.95349430       0.00628984      -0.00223016       0.00043016 
Ti      -4.18270027       8.89367658       7.95349438       0.00580984      -0.00280016      -0.00032984 
Ti       1.42780343       8.89385567       7.95349426       0.01056984      -0.00782016      -0.00072984 
Ti       1.37796181       4.03460838       3.40864557      -0.01720016       0.01518984       0.00003016 
Ti       6.98847674       4.03478747       3.40864544      -0.01034016      -0.00238016       0.00084016 
Ti      -1.42712372       8.89353141       3.40864552      -0.02029016       0.01216984       0.00025016 
Ti       4.18337998       8.89371049       3.40864540      -0.00893016      -0.00164016       0.00060016 
Ti       1.37796171       4.03460828       7.95349437      -0.00896016       0.00053984      -0.00009984 
Ti       6.98847664       4.03478736       7.95349424      -0.01282016      -0.00081016      -0.00084984 
Ti      -1.42712382       8.89353130       7.95349432      -0.00907016      -0.00011016      -0.00052984 
Ti       4.18337988       8.89371039       7.95349419      -0.00955016      -0.00330016      -0.00061984 
Ti       1.42742820       0.82450335       1.13623033       0.00990984       0.00233984      -0.00107984 
Ti       7.03793190       0.82468244       1.13623020       0.01041984       0.00139984       0.00009016 
Ti      -1.37766856       5.68342638       1.13623028       0.01295984       0.00114984      -0.00067984 
Ti       4.23283515       5.68360547       1.13623016       0.00787984       0.00206984      -0.00193984 
Ti       1.42743371       0.82449354       5.68107913       0.00843984       0.00170984       0.00107016 
Ti       7.03793741       0.82467262       5.68106991       0.01047984       0.00101984      -0.00012984 
Ti      -1.37766305       5.68341656       5.68107908       0.01191984       0.00041984       0.00086016 
Ti       4.23283505       5.68360537       5.68106987       0.00784984       0.00297984       0.00224016 
Ti       4.18302148       0.82436780       1.13623027      -0.01756016       0.00988984       0.00776016 
Ti       9.79352518       0.82454689       1.13623014      -0.00674016       0.00353984      -0.00066984 
Ti       1.37792472       5.68329083       1.13623022      -0.00636016       0.00414984      -0.00240984 
Ti       6.98842842       5.68346992       1.13623010      -0.01256016       0.00619984      -0.00049984 
Ti       4.18302138       0.82436770       5.68107907      -0.01603016       0.00905984      -0.00776984 
Ti       9.79352508       0.82454679       5.68106985      -0.00613016       0.00343984       0.00059016 
Ti       1.37792462       5.68329073       5.68106993      -0.00702016       0.00435984       0.00266016 
Ti       6.98842832       5.68346981       5.68106980      -0.01044016       0.00524984       0.00058016 
Ti       0.00029379       1.64845882       3.40864565      -0.01467016       0.00908984       0.00048016 
Ti       5.61080872       1.64863791       3.40864553      -0.01004016       0.01230984       0.00014016 
Ti      -2.80479174       6.50738185       3.40864561      -0.00319016       0.01186984       0.00103016 
Ti       2.80571196       6.50756094       3.40864548      -0.00327016       0.00920984       0.00031016 
Ti       0.00029369       1.64845872       7.95349445      -0.00234016       0.00880984      -0.00051984 
Ti       5.61080862       1.64863781       7.95349432      -0.00527016       0.00957984      -0.00015984 
Ti      -2.80479184       6.50738175       7.95349440      -0.00392016       0.00925984      -0.00117984 
Ti       2.80571186       6.50756083       7.95349428      -0.00330016       0.00686984      -0.00048984 
Al       0.00042316       3.23916354       1.13623031      -0.00441016       0.00281984      -0.00088984 
Al       5.61092687       3.23934262       1.13623018      -0.00467016       0.00278984      -0.00010984 
Al      -2.80467359       8.09808656       1.13623026      -0.00485016       0.00409984       0.00014016 
Al       2.80582450       8.09827537       1.13623013      -0.00379016       0.00235984      -0.00031984 
Al       0.00042306       3.23916343       5.68107910      -0.00458016       0.00278984       0.00092016 
Al       5.61092677       3.23934252       5.68106989      -0.00463016       0.00277984       0.00007016 
Al      -2.80467369       8.09808646       5.68107906      -0.00462016       0.00393984      -0.00021984 
Al       2.80583001       8.09826555       5.68106984      -0.00385016       0.00254984       0.00033016 
Al       2.79996256       1.62861651       3.40864559       0.04797984      -0.07876016       0.00015016 
Al       8.41547616       1.62013700       3.40864546       0.00449984      -0.00297016       0.00024016 
Al      -0.00012430       6.47888094       3.40864554       0.00439984      -0.00172016       0.00045016 
Al       5.61037941       6.47906003       3.40864542       0.00398984      -0.00165016       0.00025016 
Al       2.80497236       1.61995781       7.95349439       0.00436984      -0.00348016      -0.00019984 
Al       8.41546484       1.62013690       7.95349426       0.00498984      -0.00307016      -0.00029984 
Al      -0.00012440       6.47888084       7.95349434       0.00444984      -0.00254016      -0.00053984 
Al       5.61037931       6.47905993       7.95349422       0.00417984      -0.00200016      -0.00034984 
