64
Lattice="11.221007406739036 0.0003581763943235956 -2.5131323619446874e-07 -5.610193513512995 9.717846055813132 -9.1990921583057e-08 -2.0343678424995805e-07 -2.0344042297106932e-07 9.089697596676826" Properties=species:S:1:pos:R:3:force:R:3 virial="4.033776462689863 -0.030796673171452755 9.279833217593236e-05 -0.030796673171452755 3.995265154836851 -9.279833217593236e-05 9.279833217593236e-05 -9.279833217593236e-05 8.236984120266545" energy=-78270.9735648 pbc="T T T"
Ti       2.80512989       3.21069179       1.13623024       0.00641063      -0.01773031       0.00926078 
Ti       8.41563359       3.21087087       1.13623012      -0.00047937      -0.01084031       0.00046078 
Ti       0.00003313       8.06961481       1.13623020       0.00285063      -0.00665031      -0.00063922 
Ti       5.61053683       8.06979390       1.13623007       0.00354063      -0.00959031      -0.00056922 
Ti       2.80512978       3.21069168       5.68106995       0.00637063      -0.01788031      -0.00928922 
Ti       8.41563349       3.21087077       5.68106983      -0.00057937      -0.01062031      -0.00045922 
Ti       0.00003303       8.06961471       5.68106991       0.00279063      -0.00671031       0.00062078 
Ti       5.61053673       8.06979380       5.68106978       0.00374063      -0.00985031       0.00058078 
Ti      -1.37760341       4.03475365       3.40864563       0.00828062      -0.00487031      -0.00044922 
Ti       4.23290029       4.03493274       3.40864550       0.00890063      -0.01317031      -0.00063922 
Ti      -4.18270017       8.89367668       3.40864558       0.00489063      -0.01535031      -0.00075922 
Ti       1.42780354       8.89385577       3.40864546       0.00772063      -0.00223031      -0.00064922 
Ti      -1.37760351       4.03475355       7.95349443       0.00609063      -0.00467031       0.00045078 
Ti       4.23290019       4.03493264       7.95349430       0.01032062      -0.00724031       0.00063078 
Ti      -4.18270027       8.89367658       7.95349438       0.01013063      -0.00604031       0.00073078 
Ti       1.42780343       8.89385567       7.95349426       0.00744063      -0.00189031       0.00066078 
Ti       1.37796181       4.03460838       3.40864557      -0.00014937      -0.01809031      -0.00055922 
Ti       6.98847674       4.03478747       3.40864544      -0.01206938      -0.00040031      -0.00038922 
Ti      -1.42712372       8.89353141       3.40864552       0.00084063      -0.01419031      -0.00063922 
Ti       4.18337998       8.89371049       3.40864540      -0.01051937      -0.00021031      -0.00071922 
Ti       1.37796171       4.03460828       7.95349437      -0.00680937      -0.00277031       0.00060078 
Ti       6.98847664       4.03478736       7.95349424      -0.01142937      -0.00192031       0.00034078 
Ti      -1.42712382       8.89353130       7.95349432      -0.00934938      -0.00021031       0.00068078 
Ti       4.18337988       8.89371039       7.95349419      -0.01053938      -0.00040031       0.00068078 
Ti       1.42742820       0.82450335       1.13623033       0.01122063       0.00186969       0.00032078 
Ti       7.03793190       0.82468244       1.13623020       0.00817063       0.00223969      -0.00036922 
Ti      -1.37766856       5.68342638       1.13623028       0.00765063       0.00420969       0.00036078 
Ti       4.23283515       5.68360547       1.13623016       0.01117062      -0.00063031       0.00053078 
Ti       1.42743371       0.82449354       5.68107913       0.01143062       0.00196969      -0.00029922 
Ti       7.03793741       0.82467262       5.68106991       0.00809063       0.00251969       0.00036078 
Ti      -1.37766305       5.68341656       5.68107908       0.00754063       0.00405969      -0.00041922 
Ti       4.23283505       5.68360537       5.68106987       0.01163063      -0.00056031      -0.00054922 
Ti       4.18302148       0.82436780       1.13623027      -0.00003937       0.00216969      -0.00874922 
Ti       9.79352518       0.82454689       1.13623014      -0.01098937       0.00412969       0.00056078 
Ti       1.37792472       5.68329083       1.13623022      -0.00857938       0.00607969       0.00115078 
Ti       6.98842842       5.68346992       1.13623010      -0.00767937       0.00385969       0.00035078 
Ti       4.18302138       0.82436770       5.68107907      -0.00007937       0.00235969       0.00875078 
Ti       9.79352508       0.82454679       5.68106985      -0.01124937       0.00440969      -0.00054922 
Ti       1.37792462       5.68329073       5.68106993      -0.00894937       0.00595969      -0.00117922 
Ti       6.98842832       5.68346981       5.68106980      -0.00759937       0.00381969      -0.00033922 
Ti       0.00029379       1.64845882       3.40864565       0.00695063       0.00672969      -0.00076922 
Ti       5.61080872       1.64863791       3.40864553       0.00282063       0.00727969      -0.00048922 
Ti      -2.80479174       6.50738185       3.40864561      -0.00564937       0.00752969      -0.00037922 
Ti       2.80571196       6.50756094       3.40864548      -0.00247937       0.00908969      -0.00073922 
Ti       0.00029369       1.64845872       7.95349445      -0.00401937       0.00605969       0.00077078 
Ti       5.61080862       1.64863781       7.95349432      -0.00289937       0.00882969       0.00050078 
Ti      -2.80479184       6.50738175       7.95349440      -0.00483937       0.01002969       0.00039078 
Ti       2.80571186       6.50756083       7.95349428      -0.00237937       0.01053969       0.00075078 
Al       0.00042316       3.23916354       1.13623031      -0.00325937       0.00127969       0.00085078 
Al       5.61092687       3.23934262       1.13623018      -0.00399937       0.00208969       0.00011078 
Al      -2.80467359       8.09808656       1.13623026      -0.00379937       0.00143969      -0.00061922 
Al       2.80582450       8.09827537       1.13623013      -0.00412937       0.00319969      -0.00005922 
Al       0.00042306       3.23916343       5.68107910      -0.00327937       0.00141969      -0.00082922 
Al       5.61092677       3.23934252       5.68106989      -0.00395937       0.00194969      -0.00009922 
Al      -2.80467369       8.09808646       5.68107906      -0.00382937       0.00133969       0.00064078 
Al       2.80583001       8.09826555       5.68106984      -0.00420937       0.00319969       0.00007078 
Al       2.80997114       1.61129931       3.40864559      -0.03871938       0.07362969      -0.00021922 
Al       8.41547616       1.62013700       3.40864546       0.00415063      -0.00311031      -0.00020922 
Al      -0.00012430       6.47888094       3.40864554       0.00474063      -0.00319031      -0.00023922 
Al       5.61037941       6.47906003       3.40864542       0.00478063      -0.00387031      -0.00019922 
Al       2.80497236       1.61995781       7.95349439       0.00516063      -0.00224031       0.00021078 
Al       8.41546484       1.62013690       7.95349426       0.00337063      -0.00329031       0.00019078 
Al      -0.00012440       6.47888084       7.95349434       0.00416063      -0.00183031       0.00024078 
Al       5.61037931       6.47905993       7.95349422       0.00518063      -0.00304031       0.00025078 
