64
Lattice="11.221007406739036 0.0003581763943235956 -2.5131323619446874e-07 -5.610193513512995 9.717846055813132 -9.1990921583057e-08 -2.0343678424995805e-07 -2.0344042297106932e-07 9.089697596676826" Properties=species:S:1:pos:R:3:force:R:3 virial="4.025535970792641 -0.01974129853156001 -0.00042687232800928885 -0.01974129853156001 4.0732095673091555 -0.000290768107484588 -0.00042687232800928885 -0.000290768107484588 8.238320416249879" energy=-78270.9735579 pbc="T T T"
Ti       2.81012857       3.20203319       1.13623024      -0.04382078       0.06250000       0.00084984 
Ti       8.41563359       3.21087087       1.13623012       0.00515922      -0.01259000       0.00086984 
Ti       0.00003313       8.06961481       1.13623020       0.00449922      -0.01114000       0.00101984 
Ti       5.61053683       8.06979390       1.13623007       0.00266922      -0.00617000       0.00076984 
Ti       2.80512978       3.21069168       5.68106995      -0.00385078      -0.00923000      -0.00091016 
Ti       8.41563349       3.21087077       5.68106983       0.00713922      -0.01267000      -0.00090016 
Ti       0.00003303       8.06961471       5.68106991       0.00419922      -0.00941000      -0.00095016 
Ti       5.61053673       8.06979380       5.68106978       0.00300922      -0.00517000      -0.00073016 
Ti      -1.37760341       4.03475365       3.40864563       0.01367922      -0.00861000      -0.00032016 
Ti       4.23290029       4.03493274       3.40864550       0.00583922      -0.00558000       0.00092984 
Ti      -4.18270017       8.89367668       3.40864558       0.00347922      -0.00282000       0.00095984 
Ti       1.42780354       8.89385577       3.40864546       0.01185922      -0.00537000       0.00048984 
Ti      -1.37760351       4.03475355       7.95349443       0.01327922      -0.00826000       0.00029984 
Ti       4.23290019       4.03493264       7.95349430       0.00651922      -0.00576000      -0.00092016 
Ti      -4.18270027       8.89367658       7.95349438       0.00408922      -0.00322000      -0.00088016 
Ti       1.42780343       8.89385567       7.95349426       0.01210922      -0.00573000      -0.00063016 
Ti       1.37796181       4.03460838       3.40864557      -0.00596078      -0.00722000      -0.00677016 
Ti       6.98847674       4.03478747       3.40864544      -0.00640078       0.00011000       0.00116984 
Ti      -1.42712372       8.89353141       3.40864552      -0.01117078      -0.00346000       0.00375984 
Ti       4.18337998       8.89371049       3.40864540      -0.00646078       0.00159000       0.00006984 
Ti       1.37796171       4.03460828       7.95349437      -0.00601078      -0.00697000       0.00679984 
Ti       6.98847664       4.03478736       7.95349424      -0.00699078       0.00001000      -0.00121016 
Ti      -1.42712382       8.89353130       7.95349432      -0.01172078      -0.00376000      -0.00379016 
Ti       4.18337988       8.89371039       7.95349419      -0.00635078       0.00128000      -0.00002016 
Ti       1.42742820       0.82450335       1.13623033       0.00709922      -0.00775000       0.00085984 
Ti       7.03793190       0.82468244       1.13623020       0.01547922      -0.00055000       0.00098984 
Ti      -1.37766856       5.68342638       1.13623028       0.01149922      -0.00027000       0.00085984 
Ti       4.23283515       5.68360547       1.13623016       0.00009922      -0.00540000       0.00070984 
Ti       1.42743371       0.82449354       5.68107913       0.00600922       0.00075000      -0.00091016 
Ti       7.03793741       0.82467262       5.68106991       0.01368922      -0.00142000      -0.00098016 
Ti      -1.37766305       5.68341656       5.68107908       0.01177922       0.00041000      -0.00086016 
Ti       4.23283505       5.68360537       5.68106987       0.00917922       0.00447000      -0.00066016 
Ti       4.18302148       0.82436780       1.13623027      -0.00666078      -0.01064000       0.00077984 
Ti       9.79352518       0.82454689       1.13623014      -0.00475078       0.00409000       0.00108984 
Ti       1.37792472       5.68329083       1.13623022       0.00732922      -0.00713000       0.00111984 
Ti       6.98842842       5.68346992       1.13623010      -0.00971078       0.00990000       0.00059984 
Ti       4.18302138       0.82436770       5.68107907      -0.01298078       0.00329000      -0.00072016 
Ti       9.79352508       0.82454679       5.68106985      -0.00441078       0.00336000      -0.00111016 
Ti       1.37792462       5.68329073       5.68106993      -0.00602078       0.00175000      -0.00110016 
Ti       6.98842832       5.68346981       5.68106980      -0.00952078       0.00931000      -0.00063016 
Ti       0.00029379       1.64845882       3.40864565      -0.00288078       0.00756000       0.00187984 
Ti       5.61080872       1.64863791       3.40864553      -0.00580078       0.01025000      -0.00010016 
Ti      -2.80479174       6.50738185       3.40864561      -0.00527078       0.01082000      -0.00019016 
Ti       2.80571196       6.50756094       3.40864548      -0.00508078       0.01185000       0.00166984 
Ti       0.00029369       1.64845872       7.95349445      -0.00299078       0.00724000      -0.00191016 
Ti       5.61080862       1.64863781       7.95349432      -0.00609078       0.01130000       0.00012984 
Ti      -2.80479184       6.50738175       7.95349440      -0.00527078       0.01109000       0.00015984 
Ti       2.80571186       6.50756083       7.95349428      -0.00489078       0.01167000      -0.00161016 
Al       0.00042316       3.23916354       1.13623031       0.00411922      -0.00081000       0.00029984 
Al       5.61092687       3.23934262       1.13623018       0.00556922       0.00366000       0.00025984 
Al      -2.80467359       8.09808656       1.13623026      -0.00605078       0.00124000       0.00019984 
Al       2.80582450       8.09827537       1.13623013      -0.00312078       0.00219000       0.00038984 
Al       0.00042306       3.23916343       5.68107910      -0.00252078       0.00204000      -0.00037016 
Al       5.61092677       3.23934252       5.68106989      -0.00468078       0.00289000      -0.00023016 
Al      -2.80467369       8.09808646       5.68107906      -0.00487078       0.00321000      -0.00023016 
Al       2.80583001       8.09826555       5.68106984      -0.00343078       0.00261000      -0.00043016 
Al       2.80497246       1.61995791       3.40864559       0.00267922      -0.00939000       0.01014984 
Al       8.41547616       1.62013700       3.40864546       0.00546922      -0.00350000       0.00013984 
Al      -0.00012430       6.47888094       3.40864554       0.00592922      -0.00374000      -0.00027016 
Al       5.61037941       6.47906003       3.40864542       0.00414922      -0.00105000      -0.00066016 
Al       2.80497236       1.61995781       7.95349439       0.00245922      -0.00952000      -0.01009016 
Al       8.41546484       1.62013690       7.95349426       0.00564922      -0.00349000      -0.00012016 
Al      -0.00012440       6.47888084       7.95349434       0.00588922      -0.00378000       0.00025984 
Al       5.61037931       6.47905993       7.95349422       0.00413922      -0.00086000       0.00067984 
