64
Lattice="11.221007406739036 0.0003581763943235956 -2.5131323619446874e-07 -5.610193513512995 9.717846055813132 -9.1990921583057e-08 -2.0343678424995805e-07 -2.0344042297106932e-07 9.089697596676826" Properties=species:S:1:pos:R:3:force:R:3 virial="4.068532531367489 -0.06425356519861555 0.02623718178387528 -0.06425356519861555 4.020766136518798 -0.01546020214051033 0.02623718178387528 -0.01546020214051033 8.235938592390694" energy=-78270.9735336 pbc="T T T"
Ti       2.80512989       3.21069179       1.13623024       0.00440000      -0.00710063      -0.00254953 
Ti       8.41563359       3.21087087       1.13623012       0.01214000      -0.00136063       0.01100047 
Ti       0.00003313       8.06961481       1.13623020      -0.00039000      -0.01181062      -0.00035953 
Ti       5.61053683       8.06979390       1.13623007       0.00460000      -0.01108063      -0.00066953 
Ti       2.80512978       3.21069168       5.68106995       0.00716000      -0.00901063       0.00264047 
Ti       8.41563349       3.21087077       5.68106983       0.00203000      -0.00707062      -0.00147953 
Ti       0.00003303       8.06961471       5.68106991       0.00218000      -0.00902063       0.00036047 
Ti       5.61053673       8.06979380       5.68106978       0.00450000      -0.01191063      -0.00041953 
Ti      -1.36982725       4.03475390       3.41494479      -0.06204000      -0.00296063      -0.05466953 
Ti       4.23290029       4.03493274       3.40864550       0.01309000      -0.00514062      -0.00077953 
Ti      -4.18270017       8.89367668       3.40864558       0.01078000      -0.00967063      -0.00059953 
Ti       1.42780354       8.89385577       3.40864546       0.00714000      -0.00481062       0.00210047 
Ti      -1.37760351       4.03475355       7.95349443       0.00253000      -0.00398062       0.01193047 
Ti       4.23290019       4.03493264       7.95349430       0.01137000      -0.00433062       0.00181047 
Ti      -4.18270027       8.89367658       7.95349438       0.00969000      -0.00893063       0.00155047 
Ti       1.42780343       8.89385567       7.95349426       0.00897000      -0.00457063       0.00075047 
Ti       1.37796181       4.03460838       3.40864557       0.00026000      -0.00298063       0.00375047 
Ti       6.98847674       4.03478747       3.40864544       0.00560000       0.00719938       0.00142047 
Ti      -1.42712372       8.89353141       3.40864552      -0.01141000      -0.00406062      -0.00011953 
Ti       4.18337998       8.89371049       3.40864540      -0.00883000       0.00047937      -0.00078953 
Ti       1.37796171       4.03460828       7.95349437      -0.01103000      -0.00106062       0.00049047 
Ti       6.98847664       4.03478736       7.95349424      -0.00609000       0.00152937      -0.00125953 
Ti      -1.42712382       8.89353130       7.95349432      -0.01133000      -0.00402062       0.00020047 
Ti       4.18337988       8.89371039       7.95349419      -0.00768000       0.00031937       0.00088047 
Ti       1.42742820       0.82450335       1.13623033       0.00821000       0.00048937      -0.00040953 
Ti       7.03793190       0.82468244       1.13623020       0.01300000       0.00724938       0.00116047 
Ti      -1.37766856       5.68342638       1.13623028       0.00691000      -0.00541062       0.00502047 
Ti       4.23283515       5.68360547       1.13623016       0.01300000       0.00081937      -0.00073953 
Ti       1.42743371       0.82449354       5.68107913       0.01003000      -0.00139062       0.00041047 
Ti       7.03793741       0.82467262       5.68106991       0.01262000       0.00396937      -0.00120953 
Ti      -1.37766305       5.68341656       5.68107908       0.00661000       0.00620938       0.00475047 
Ti       4.23283505       5.68360537       5.68106987       0.01451000       0.00164938      -0.00017953 
Ti       4.18302148       0.82436780       1.13623027      -0.00802000       0.00353937       0.00097047 
Ti       9.79352518       0.82454689       1.13623014      -0.01122000       0.00633938      -0.00235953 
Ti       1.37792472       5.68329083       1.13623022      -0.01288000       0.00483937      -0.00079953 
Ti       6.98842842       5.68346992       1.13623010      -0.00740000       0.00374937      -0.00124953 
Ti       4.18302138       0.82436770       5.68107907      -0.00719000       0.00293937      -0.00044953 
Ti       9.79352508       0.82454679       5.68106985      -0.01057000       0.00962937      -0.00005953 
Ti       1.37792462       5.68329073       5.68106993      -0.01566000       0.00341937      -0.00151953 
Ti       6.98842832       5.68346981       5.68106980      -0.00607000       0.00265937      -0.00039953 
Ti       0.00029379       1.64845882       3.40864565      -0.00055000       0.00772938       0.00438047 
Ti       5.61080872       1.64863791       3.40864553      -0.00112000       0.01082937      -0.00014953 
Ti      -2.80479174       6.50738185       3.40864561      -0.00080000      -0.00480062       0.00120047 
Ti       2.80571196       6.50756094       3.40864548      -0.00157000       0.01039937      -0.00135953 
Ti       0.00029369       1.64845872       7.95349445      -0.00663000       0.00948937      -0.00015953 
Ti       5.61080862       1.64863781       7.95349432      -0.00178000       0.01161937       0.00033047 
Ti      -2.80479184       6.50738175       7.95349440      -0.00387000       0.00584938      -0.00110953 
Ti       2.80571186       6.50756083       7.95349428      -0.00169000       0.00830937       0.00142047 
Al       0.00042316       3.23916354       1.13623031      -0.00661000       0.00332937      -0.00041953 
Al       5.61092687       3.23934262       1.13623018      -0.00240000       0.00369937       0.00043047 
Al      -2.80467359       8.09808656       1.13623026      -0.00382000       0.00052937       0.00063047 
Al       2.80582450       8.09827537       1.13623013      -0.00285000       0.00276937      -0.00034953 
Al       0.00042306       3.23916343       5.68107910       0.00439000      -0.00316063       0.01538047 
Al       5.61092677       3.23934252       5.68106989      -0.00283000       0.00348937      -0.00053953 
Al      -2.80467369       8.09808646       5.68107906      -0.00402000       0.00098938      -0.00071953 
Al       2.80583001       8.09826555       5.68106984      -0.00334000       0.00334937      -0.00017953 
Al       2.80497246       1.61995791       3.40864559       0.00585000      -0.00458062       0.00019047 
Al       8.41547616       1.62013700       3.40864546       0.00917000       0.00324937       0.00107047 
Al      -0.00012430       6.47888094       3.40864554       0.00622000       0.00415937       0.00082047 
Al       5.61037941       6.47906003       3.40864542       0.00644000      -0.00331063      -0.00059953 
Al       2.80497236       1.61995781       7.95349439       0.00464000      -0.00266063       0.00034047 
Al       8.41546484       1.62013690       7.95349426       0.00501000      -0.00048063       0.00047047 
Al      -0.00012440       6.47888084       7.95349434       0.00282000      -0.00297063       0.00070047 
Al       5.61037931       6.47905993       7.95349422       0.00582000      -0.00317063       0.00009047 
