64
Lattice="11.221007406739036 0.0003581763943235956 -2.5131323619446874e-07 -5.610193513512995 9.717846055813132 -9.1990921583057e-08 -2.0343678424995805e-07 -2.0344042297106932e-07 9.089697596676826" Properties=species:S:1:pos:R:3:force:R:3 virial="4.049502686715945 0.005029669603935534 -0.026045398564045016 0.005029669603935534 4.028499330866792 0.014748748260494849 -0.026045398564045016 0.014748748260494849 8.209985992158826" energy=-78270.9734181 pbc="T T T"
Ti       2.80512989       3.21069179       1.13623024       0.00078953      -0.01481000       0.00121984 
Ti       8.41563359       3.21087087       1.13623012      -0.00374047      -0.01821000      -0.01502016 
Ti       0.00003313       8.06961481       1.13623020       0.00094953      -0.00545000       0.00012984 
Ti       5.61053683       8.06979390       1.13623007       0.00550953      -0.00461000       0.00140984 
Ti       2.80512978       3.21069168       5.68106995      -0.00184047      -0.01810000      -0.00138016 
Ti       8.41563349       3.21087077       5.68106983       0.00571953      -0.00922000       0.00492984 
Ti       0.00003303       8.06961471       5.68106991      -0.00406047      -0.00681000      -0.00007016 
Ti       5.61053673       8.06979380       5.68106978       0.00901953      -0.00441000      -0.00029016 
Ti      -1.38537957       4.03475340       3.40235556       0.07673953      -0.00951000       0.05373984 
Ti       4.23290029       4.03493274       3.40864550       0.00790953      -0.00818000       0.00105984 
Ti      -4.18270017       8.89367668       3.40864558       0.00703953       0.00008000       0.00306984 
Ti       1.42780354       8.89385577       3.40864546       0.00854953      -0.00132000      -0.00346016 
Ti      -1.37760351       4.03475355       7.95349443       0.00919953      -0.00716000      -0.01134016 
Ti       4.23290019       4.03493264       7.95349430       0.01011953      -0.00848000      -0.00209016 
Ti      -4.18270027       8.89367658       7.95349438       0.00814953      -0.00147000      -0.00419016 
Ti       1.42780343       8.89385567       7.95349426       0.00691953      -0.00196000       0.00048984 
Ti       1.37796181       4.03460838       3.40864557      -0.02436047      -0.00595000      -0.00414016 
Ti       6.98847674       4.03478747       3.40864544      -0.02236047      -0.00988000      -0.00061016 
Ti      -1.42712372       8.89353141       3.40864552      -0.01292047       0.00216000       0.00190984 
Ti       4.18337998       8.89371049       3.40864540      -0.00328047       0.00149000      -0.00106016 
Ti       1.37796171       4.03460828       7.95349437      -0.01467047      -0.00803000       0.00003984 
Ti       6.98847664       4.03478736       7.95349424      -0.00654047      -0.00225000       0.00054984 
Ti      -1.42712382       8.89353130       7.95349432      -0.01300047      -0.00060000      -0.00211016 
Ti       4.18337988       8.89371039       7.95349419      -0.00518047       0.00298000       0.00100984 
Ti       1.42742820       0.82450335       1.13623033       0.00681953      -0.00069000       0.00084984 
Ti       7.03793190       0.82468244       1.13623020       0.01075953       0.00146000      -0.00108016 
Ti      -1.37766856       5.68342638       1.13623028       0.00567953       0.00714000      -0.00845016 
Ti       4.23283515       5.68360547       1.13623016       0.01463953       0.00437000       0.00031984 
Ti       1.42743371       0.82449354       5.68107913       0.00827953       0.00111000      -0.00077016 
Ti       7.03793741       0.82467262       5.68106991       0.00887953       0.00500000       0.00127984 
Ti      -1.37766305       5.68341656       5.68107908       0.00448953      -0.00339000      -0.00162016 
Ti       4.23283505       5.68360537       5.68106987       0.01514953       0.00370000       0.00082984 
Ti       4.18302148       0.82436780       1.13623027      -0.00967047       0.00345000       0.00069984 
Ti       9.79352518       0.82454689       1.13623014      -0.00478047       0.00612000       0.00260984 
Ti       1.37792472       5.68329083       1.13623022      -0.00989047       0.00413000       0.00063984 
Ti       6.98842842       5.68346992       1.13623010      -0.00598047       0.00777000      -0.00121016 
Ti       4.18302138       0.82436770       5.68107907      -0.01410047       0.00323000      -0.00123016 
Ti       9.79352508       0.82454679       5.68106985      -0.00157047       0.00417000       0.00001984 
Ti       1.37792462       5.68329073       5.68106993      -0.00695047       0.00601000       0.00176984 
Ti       6.98842832       5.68346981       5.68106980      -0.00749047       0.00849000       0.00278984 
Ti       0.00029379       1.64845882       3.40864565      -0.00709047       0.00595000      -0.00358016 
Ti       5.61080872       1.64863791       3.40864553      -0.00764047       0.00402000       0.00020984 
Ti      -2.80479174       6.50738185       3.40864561      -0.00911047       0.02698000      -0.00012016 
Ti       2.80571196       6.50756094       3.40864548      -0.00263047       0.01105000       0.00034984 
Ti       0.00029369       1.64845872       7.95349445      -0.00234047       0.00705000      -0.00081016 
Ti       5.61080862       1.64863781       7.95349432      -0.00537047       0.00642000      -0.00022016 
Ti      -2.80479184       6.50738175       7.95349440      -0.00551047       0.01013000       0.00021984 
Ti       2.80571186       6.50756083       7.95349428      -0.00274047       0.01199000      -0.00043016 
Al       0.00042316       3.23916354       1.13623031      -0.00350047       0.00126000      -0.00037016 
Al       5.61092687       3.23934262       1.13623018      -0.00457047       0.00119000      -0.00118016 
Al      -2.80467359       8.09808656       1.13623026      -0.00458047       0.00333000      -0.00068016 
Al       2.80582450       8.09827537       1.13623013      -0.00367047       0.00356000       0.00039984 
Al       0.00042306       3.23916343       5.68107910      -0.01402047       0.00763000      -0.01403016 
Al       5.61092677       3.23934252       5.68106989      -0.00411047       0.00157000       0.00132984 
Al      -2.80467369       8.09808646       5.68107906      -0.00438047       0.00276000       0.00077984 
Al       2.80583001       8.09826555       5.68106984      -0.00343047       0.00328000       0.00012984 
Al       2.80497246       1.61995791       3.40864559       0.00324953      -0.00193000      -0.00014016 
Al       8.41547616       1.62013700       3.40864546       0.00073953      -0.00762000      -0.00140016 
Al      -0.00012430       6.47888094       3.40864554       0.00017953      -0.00872000      -0.00120016 
Al       5.61037941       6.47906003       3.40864542       0.00410953      -0.00134000       0.00061984 
Al       2.80497236       1.61995781       7.95349439       0.00418953      -0.00314000      -0.00043016 
Al       8.41546484       1.62013690       7.95349426       0.00491953      -0.00328000      -0.00017016 
Al      -0.00012440       6.47888084       7.95349434       0.00307953      -0.00232000      -0.00034016 
Al       5.61037931       6.47905993       7.95349422       0.00530953      -0.00219000      -0.00018016 
