64
Lattice="11.221007406739036 0.0003581763943235956 -2.5131323619446874e-07 -5.610193513512995 9.717846055813132 -9.1990921583057e-08 -2.0343678424995805e-07 -2.0344042297106932e-07 9.089697596676826" Properties=species:S:1:pos:R:3:force:R:3 virial="4.021205381957763 0.0027035247440588294 9.898488765432785e-05 0.0027035247440588294 4.041973648698737 0.00019178321983026023 9.898488765432785e-05 0.00019178321983026023 8.228508539261142" energy=-78270.9734041 pbc="T T T"
Ti       2.80512989       3.21069179       1.13623024       0.00045969      -0.00968031       0.00084047 
Ti       8.41563359       3.21087087       1.13623012       0.00267969      -0.00835031      -0.00016953 
Ti       0.00003313       8.06961481       1.13623020       0.00289969      -0.00880031      -0.00068953 
Ti       5.61053683       8.06979390       1.13623007       0.00171969      -0.00994031      -0.00046953 
Ti       2.80512978       3.21069168       5.68106995       0.00013969      -0.00756031      -0.00086953 
Ti       8.41563349       3.21087077       5.68106983       0.00271969      -0.00685031       0.00014047 
Ti       0.00003303       8.06961471       5.68106991       0.00363969      -0.01061031       0.00069047 
Ti       5.61053673       8.06979380       5.68106978       0.00141969      -0.01194031       0.00050047 
Ti      -1.38260209       4.04341225       3.40864563       0.05516969      -0.07855031       0.00059047 
Ti       4.23290029       4.03493274       3.40864550       0.00355969      -0.00586031       0.00053047 
Ti      -4.18270017       8.89367668       3.40864558       0.00998969      -0.00177031      -0.00102953 
Ti       1.42780354       8.89385577       3.40864546       0.00584969      -0.00785031       0.00040047 
Ti      -1.37760351       4.03475355       7.95349443       0.01260969      -0.00657031      -0.00051953 
Ti       4.23290019       4.03493264       7.95349430       0.00429969      -0.00587031      -0.00048953 
Ti      -4.18270027       8.89367658       7.95349438       0.01070969      -0.00321031       0.00098047 
Ti       1.42780343       8.89385567       7.95349426       0.00706969      -0.00666031      -0.00033953 
Ti       1.37796181       4.03460838       3.40864557      -0.01344031       0.00527969       0.00089047 
Ti       6.98847674       4.03478747       3.40864544      -0.02705031      -0.00539031       0.00045047 
Ti      -1.42712372       8.89353141       3.40864552      -0.00675031       0.00373969      -0.00013953 
Ti       4.18337998       8.89371049       3.40864540      -0.01210031       0.00028969      -0.00071953 
Ti       1.37796171       4.03460828       7.95349437      -0.00783031       0.00018969      -0.00095953 
Ti       6.98847664       4.03478736       7.95349424      -0.01210031      -0.00099031      -0.00039953 
Ti      -1.42712382       8.89353130       7.95349432      -0.00720031       0.00208969       0.00018047 
Ti       4.18337988       8.89371039       7.95349419      -0.01217031      -0.00065031       0.00067047 
Ti       1.42742820       0.82450335       1.13623033       0.01165969       0.00816969       0.00311047 
Ti       7.03793190       0.82468244       1.13623020       0.00752969       0.00269969       0.00141047 
Ti      -1.37766856       5.68342638       1.13623028       0.01370969       0.00764969      -0.00853953 
Ti       4.23283515       5.68360547       1.13623016       0.00629969      -0.00102031       0.00030047 
Ti       1.42743371       0.82449354       5.68107913       0.01218969       0.00934969      -0.00310953 
Ti       7.03793741       0.82467262       5.68106991       0.00761969       0.00203969      -0.00139953 
Ti      -1.37766305       5.68341656       5.68107908       0.01409969       0.00813969       0.00848047 
Ti       4.23283505       5.68360537       5.68106987       0.00563969      -0.00158031      -0.00028953 
Ti       4.18302148       0.82436780       1.13623027      -0.00989031       0.00715969       0.00004047 
Ti       9.79352518       0.82454689       1.13623014      -0.00549031       0.00187969      -0.00089953 
Ti       1.37792472       5.68329083       1.13623022      -0.00657031       0.00172969       0.00150047 
Ti       6.98842842       5.68346992       1.13623010      -0.01009031       0.00215969       0.00054047 
Ti       4.18302138       0.82436770       5.68107907      -0.00980031       0.00708969      -0.00003953 
Ti       9.79352508       0.82454679       5.68106985      -0.00664031       0.00239969       0.00090047 
Ti       1.37792462       5.68329073       5.68106993      -0.00661031       0.00162969      -0.00155953 
Ti       6.98842832       5.68346981       5.68106980      -0.00916031       0.00170969      -0.00055953 
Ti       0.00029379       1.64845882       3.40864565      -0.01081031       0.02527969      -0.00087953 
Ti       5.61080872       1.64863791       3.40864553      -0.00648031       0.00901969      -0.00071953 
Ti      -2.80479174       6.50738185       3.40864561      -0.00268031       0.02636969       0.00081047 
Ti       2.80571196       6.50756094       3.40864548      -0.00583031       0.00420969       0.00090047 
Ti       0.00029369       1.64845872       7.95349445      -0.00204031       0.01357969       0.00088047 
Ti       5.61080862       1.64863781       7.95349432      -0.00676031       0.00956969       0.00070047 
Ti      -2.80479184       6.50738175       7.95349440      -0.00126031       0.00878969      -0.00078953 
Ti       2.80571186       6.50756083       7.95349428      -0.00632031       0.00515969      -0.00087953 
Al       0.00042316       3.23916354       1.13623031      -0.00879031       0.00539969       0.00953047 
Al       5.61092687       3.23934262       1.13623018      -0.00534031       0.00181969      -0.00060953 
Al      -2.80467359       8.09808656       1.13623026      -0.00281031       0.00426969      -0.00077953 
Al       2.80582450       8.09827537       1.13623013      -0.00453031       0.00157969       0.00009047 
Al       0.00042306       3.23916343       5.68107910      -0.00883031       0.00598969      -0.00950953 
Al       5.61092677       3.23934252       5.68106989      -0.00534031       0.00230969       0.00062047 
Al      -2.80467369       8.09808646       5.68107906      -0.00256031       0.00357969       0.00078047 
Al       2.80583001       8.09826555       5.68106984      -0.00479031       0.00139969      -0.00004953 
Al       2.80497246       1.61995791       3.40864559       0.00327969      -0.00109031      -0.00027953 
Al       8.41547616       1.62013700       3.40864546       0.01019969       0.00537969      -0.00022953 
Al      -0.00012430       6.47888094       3.40864554       0.00768969       0.00493969       0.00046047 
Al       5.61037941       6.47906003       3.40864542       0.00294969      -0.00317031       0.00001047 
Al       2.80497236       1.61995781       7.95349439       0.00535969      -0.00132031       0.00029047 
Al       8.41546484       1.62013690       7.95349426       0.00492969      -0.00272031       0.00018047 
Al      -0.00012440       6.47888084       7.95349434       0.00635969      -0.00248031      -0.00046953 
Al       5.61037931       6.47905993       7.95349422       0.00361969      -0.00355031      -0.00001953 
