64
Lattice="11.221007406739036 0.0003581763943235956 -2.5131323619446874e-07 -5.610193513512995 9.717846055813132 -9.1990921583057e-08 -2.0343678424995805e-07 -2.0344042297106932e-07 9.089697596676826" Properties=species:S:1:pos:R:3:force:R:3 virial="4.082538892970576 -0.06779846148773619 -1.855966643518647e-05 -0.06779846148773619 3.987333990713548 -6.1865554783954905e-06 -1.855966643518647e-05 -6.1865554783954905e-06 8.23857406502449" energy=-78270.9735479 pbc="T T T"
Ti       2.80512989       3.21069179       1.13623024       0.00215984      -0.01164047      -0.00015969 
Ti       8.41563359       3.21087087       1.13623012       0.00709984      -0.01298047       0.00035031 
Ti       0.00003313       8.06961481       1.13623020       0.00222984      -0.00825047       0.00100031 
Ti       5.61053683       8.06979390       1.13623007       0.00485984      -0.00442047       0.00116031 
Ti       2.80512978       3.21069168       5.68106995       0.00192984      -0.01217047       0.00018031 
Ti       8.41563349       3.21087077       5.68106983       0.00716984      -0.01326047      -0.00035969 
Ti       0.00003303       8.06961471       5.68106991       0.00238984      -0.00862047      -0.00096969 
Ti       5.61053673       8.06979380       5.68106978       0.00496984      -0.00424047      -0.00112969 
Ti      -1.37260473       4.02609505       3.40864563      -0.03272016       0.06449953      -0.00023969 
Ti       4.23290029       4.03493274       3.40864550       0.00774984      -0.00554047      -0.00034969 
Ti      -4.18270017       8.89367668       3.40864558       0.00745984      -0.00141047      -0.00012969 
Ti       1.42780354       8.89385577       3.40864546       0.01203984      -0.00362047      -0.00025969 
Ti      -1.37760351       4.03475355       7.95349443       0.00953984      -0.00633047       0.00022031 
Ti       4.23290019       4.03493264       7.95349430       0.00727984      -0.00554047       0.00035031 
Ti      -4.18270027       8.89367658       7.95349438       0.00780984      -0.00120047       0.00010031 
Ti       1.42780343       8.89385567       7.95349426       0.01075984      -0.00497047       0.00028031 
Ti       1.37796181       4.03460838       3.40864557      -0.00459016      -0.01069047      -0.00014969 
Ti       6.98847674       4.03478747       3.40864544       0.00643984       0.00108953      -0.00036969 
Ti      -1.42712372       8.89353141       3.40864552      -0.01328016      -0.00207047      -0.00028969 
Ti       4.18337998       8.89371049       3.40864540      -0.00655016      -0.00014047      -0.00039969 
Ti       1.37796171       4.03460828       7.95349437      -0.01015016      -0.00488047       0.00018031 
Ti       6.98847664       4.03478736       7.95349424      -0.00816016      -0.00260047       0.00036031 
Ti      -1.42712382       8.89353130       7.95349432      -0.01288016      -0.00105047       0.00030031 
Ti       4.18337988       8.89371039       7.95349419      -0.00661016       0.00042953       0.00039031 
Ti       1.42742820       0.82450335       1.13623033       0.00779984      -0.00165047      -0.00171969 
Ti       7.03793190       0.82468244       1.13623020       0.01217984      -0.00000047      -0.00069969 
Ti      -1.37766856       5.68342638       1.13623028       0.00893984      -0.00582047       0.00813031 
Ti       4.23283515       5.68360547       1.13623016       0.00994984       0.00394953       0.00030031 
Ti       1.42743371       0.82449354       5.68107913       0.00756984      -0.00143047       0.00175031 
Ti       7.03793741       0.82467262       5.68106991       0.01248984       0.00005953       0.00072031 
Ti      -1.37766305       5.68341656       5.68107908       0.00927984      -0.00567047      -0.00817969 
Ti       4.23283505       5.68360537       5.68106987       0.00977984       0.00379953      -0.00035969 
Ti       4.18302148       0.82436780       1.13623027      -0.01159016       0.00338953       0.00038031 
Ti       9.79352518       0.82454689       1.13623014      -0.00645016       0.00850953       0.00193031 
Ti       1.37792472       5.68329083       1.13623022      -0.00946016       0.00451953      -0.00092969 
Ti       6.98842842       5.68346992       1.13623010      -0.00910016       0.00831953      -0.00072969 
Ti       4.18302138       0.82436770       5.68107907      -0.01241016       0.00363953      -0.00037969 
Ti       9.79352508       0.82454679       5.68106985      -0.00612016       0.00889953      -0.00189969 
Ti       1.37792462       5.68329073       5.68106993      -0.00953016       0.00471953       0.00091031 
Ti       6.98842832       5.68346981       5.68106980      -0.00922016       0.00829953       0.00074031 
Ti       0.00029379       1.64845882       3.40864565       0.00770984      -0.00810047       0.00025031 
Ti       5.61080872       1.64863791       3.40864553      -0.00485016       0.00741953      -0.00054969 
Ti      -2.80479174       6.50738185       3.40864561      -0.00415016      -0.00488047      -0.00037969 
Ti       2.80571196       6.50756094       3.40864548      -0.00324016       0.01150953      -0.00019969 
Ti       0.00029369       1.64845872       7.95349445      -0.00182016       0.00513953      -0.00022969 
Ti       5.61080862       1.64863781       7.95349432      -0.00481016       0.00681953       0.00048031 
Ti      -2.80479184       6.50738175       7.95349440      -0.00511016       0.01140953       0.00035031 
Ti       2.80571186       6.50756083       7.95349428      -0.00261016       0.01061953       0.00022031 
Al       0.00042316       3.23916354       1.13623031       0.00167984      -0.00161047      -0.00953969 
Al       5.61092687       3.23934262       1.13623018      -0.00376016       0.00235953       0.00068031 
Al      -2.80467359       8.09808656       1.13623026      -0.00510016       0.00249953       0.00073031 
Al       2.80582450       8.09827537       1.13623013      -0.00334016       0.00318953       0.00021031 
Al       0.00042306       3.23916343       5.68107910       0.00177984      -0.00167047       0.00955031 
Al       5.61092677       3.23934252       5.68106989      -0.00378016       0.00248953      -0.00068969 
Al      -2.80467369       8.09808646       5.68107906      -0.00518016       0.00261953      -0.00069969 
Al       2.80583001       8.09826555       5.68106984      -0.00332016       0.00323953      -0.00018969 
Al       2.80497246       1.61995791       3.40864559       0.00509984      -0.00342047      -0.00009969 
Al       8.41547616       1.62013700       3.40864546       0.00013984      -0.01125047      -0.00008969 
Al      -0.00012430       6.47888094       3.40864554       0.00216984      -0.01003047      -0.00003969 
Al       5.61037941       6.47906003       3.40864542       0.00508984      -0.00179047      -0.00013969 
Al       2.80497236       1.61995781       7.95349439       0.00306984      -0.00328047       0.00010031 
Al       8.41546484       1.62013690       7.95349426       0.00539984      -0.00283047       0.00007031 
Al      -0.00012440       6.47888084       7.95349434       0.00323984      -0.00280047       0.00005031 
Al       5.61037931       6.47905993       7.95349422       0.00463984      -0.00157047       0.00012031 
