64
Lattice="11.221007406739036 0.0003581763943235956 -2.5131323619446874e-07 -5.610193513512995 9.717846055813132 -9.1990921583057e-08 -2.0343678424995805e-07 -2.0344042297106932e-07 9.089697596676826" Properties=species:S:1:pos:R:3:force:R:3 virial="4.0607065386873185 -0.06255226244205682 -0.024641050470449243 -0.06255226244205682 4.033027889476977 -0.015614866027470219 -0.024641050470449243 -0.015614866027470219 8.227920816490693" energy=-78270.9734068 pbc="T T T"
Ti       2.80512989       3.21069179       1.13623024       0.00584953      -0.00991953       0.00125000 
Ti       8.41563359       3.21087087       1.13623012       0.00268953      -0.01265953       0.00167000 
Ti       0.00003313       8.06961481       1.13623020       0.00741953      -0.00695953       0.00168000 
Ti       5.61053683       8.06979390       1.13623007       0.00116953      -0.00903953       0.00024000 
Ti       2.80512978       3.21069168       5.68106995       0.01630953      -0.01456953       0.00922000 
Ti       8.41563349       3.21087077       5.68106983       0.00105953      -0.01317953      -0.00176000 
Ti       0.00003303       8.06961471       5.68106991       0.00502953      -0.00500953      -0.00165000 
Ti       5.61053673       8.06979380       5.68106978      -0.00015047      -0.01168953      -0.00127000 
Ti      -1.37760341       4.03475365       3.40864563       0.02170953      -0.00281953       0.00361000 
Ti       4.23290029       4.03493274       3.40864550       0.02123953      -0.01084953       0.00007000 
Ti      -4.18270017       8.89367668       3.40864558       0.00988953      -0.00511953      -0.00324000 
Ti       1.42780354       8.89385577       3.40864546       0.00628953      -0.00402953      -0.00087000 
Ti      -1.37760351       4.03475355       7.95349443       0.00887953      -0.00489953       0.00057000 
Ti       4.23290019       4.03493264       7.95349430       0.01152953      -0.00632953       0.00003000 
Ti      -4.18270027       8.89367658       7.95349438       0.00917953      -0.00492953       0.00322000 
Ti       1.42780343       8.89385567       7.95349426       0.00771953      -0.00210953       0.00105000 
Ti       1.38573797       4.03460863       3.41494473      -0.07163047       0.00134047      -0.05593000 
Ti       6.98847674       4.03478747       3.40864544      -0.01334047      -0.00223953      -0.00142000 
Ti      -1.42712372       8.89353141       3.40864552      -0.00607047       0.00183047       0.00075000 
Ti       4.18337998       8.89371049       3.40864540      -0.01310047      -0.00174953      -0.00135000 
Ti       1.37796171       4.03460828       7.95349437      -0.01073047       0.00085047       0.01352000 
Ti       6.98847664       4.03478736       7.95349424      -0.01222047      -0.00348953       0.00236000 
Ti      -1.42712382       8.89353130       7.95349432      -0.00382047       0.00103047       0.00206000 
Ti       4.18337988       8.89371039       7.95349419      -0.01417047      -0.00087953       0.00223000 
Ti       1.42742820       0.82450335       1.13623033       0.01108953      -0.00129953       0.00089000 
Ti       7.03793190       0.82468244       1.13623020       0.00748953      -0.00103953      -0.00084000 
Ti      -1.37766856       5.68342638       1.13623028       0.00704953       0.00535047      -0.00124000 
Ti       4.23283515       5.68360547       1.13623016       0.00856953       0.00128047       0.00254000 
Ti       1.42743371       0.82449354       5.68107913       0.01063953       0.00293047      -0.00349000 
Ti       7.03793741       0.82467262       5.68106991       0.00859953      -0.00076953       0.00125000 
Ti      -1.37766305       5.68341656       5.68107908       0.00958953       0.00284047      -0.00118000 
Ti       4.23283505       5.68360537       5.68106987       0.00731953       0.00077047      -0.00409000 
Ti       4.18302148       0.82436780       1.13623027      -0.00512047       0.00516047       0.00101000 
Ti       9.79352518       0.82454689       1.13623014      -0.01068047       0.00405047       0.00012000 
Ti       1.37792472       5.68329083       1.13623022      -0.00608047       0.00203047       0.00754000 
Ti       6.98842842       5.68346992       1.13623010      -0.01054047       0.00415047       0.00061000 
Ti       4.18302138       0.82436770       5.68107907      -0.00352047       0.00171047      -0.00094000 
Ti       9.79352508       0.82454679       5.68106985      -0.01363047       0.00287047      -0.00019000 
Ti       1.37792462       5.68329073       5.68106993      -0.00644047       0.01409047       0.00251000 
Ti       6.98842832       5.68346981       5.68106980      -0.01180047       0.00423047      -0.00155000 
Ti       0.00029379       1.64845882       3.40864565       0.00255953       0.01100047       0.00232000 
Ti       5.61080872       1.64863791       3.40864553      -0.00218047       0.00629047      -0.00158000 
Ti      -2.80479174       6.50738185       3.40864561      -0.00213047       0.00999047      -0.00205000 
Ti       2.80571196       6.50756094       3.40864548       0.00015953       0.01990047       0.00020000 
Ti       0.00029369       1.64845872       7.95349445      -0.00511047       0.00979047       0.00177000 
Ti       5.61080862       1.64863781       7.95349432      -0.00048047       0.00572047       0.00164000 
Ti      -2.80479184       6.50738175       7.95349440      -0.00222047       0.00938047       0.00199000 
Ti       2.80571186       6.50756083       7.95349428      -0.00299047       0.01269047      -0.00014000 
Al       0.00042316       3.23916354       1.13623031       0.00552953       0.00834047       0.01474000 
Al       5.61092687       3.23934262       1.13623018      -0.00421047       0.00209047      -0.00029000 
Al      -2.80467359       8.09808656       1.13623026      -0.00397047       0.00283047       0.00035000 
Al       2.80582450       8.09827537       1.13623013      -0.00458047       0.00274047      -0.00035000 
Al       0.00042306       3.23916343       5.68107910      -0.00548047       0.00248047      -0.00039000 
Al       5.61092677       3.23934252       5.68106989      -0.00340047       0.00184047       0.00035000 
Al      -2.80467369       8.09808646       5.68107906      -0.00361047       0.00281047      -0.00086000 
Al       2.80583001       8.09826555       5.68106984      -0.00435047       0.00347047       0.00033000 
Al       2.80497246       1.61995791       3.40864559       0.00945953      -0.00709953       0.00025000 
Al       8.41547616       1.62013700       3.40864546       0.00459953      -0.00184953       0.00014000 
Al      -0.00012430       6.47888094       3.40864554       0.00796953      -0.00877953       0.00066000 
Al       5.61037941       6.47906003       3.40864542       0.00414953      -0.00288953      -0.00068000 
Al       2.80497236       1.61995781       7.95349439       0.00522953      -0.00333953       0.00125000 
Al       8.41546484       1.62013690       7.95349426       0.00371953      -0.00322953       0.00035000 
Al      -0.00012440       6.47888084       7.95349434       0.00441953      -0.00209953       0.00090000 
Al       5.61037931       6.47905993       7.95349422       0.00365953      -0.00301953       0.00011000 
