64
Lattice="11.221007406739036 0.0003581763943235956 -2.5131323619446874e-07 -5.610193513512995 9.717846055813132 -9.1990921583057e-08 -2.0343678424995805e-07 -2.0344042297106932e-07 9.089697596676826" Properties=species:S:1:pos:R:3:force:R:3 virial="4.052973344339324 -0.004268723280092888 0.02564327245794931 -0.004268723280092888 3.9902540448993506 0.014928158369368321 0.02564327245794931 0.014928158369368321 8.243374832075725" energy=-78270.9735577 pbc="T T T"
Ti       2.80512989       3.21069179       1.13623024       0.00643938      -0.01240016       0.00334000 
Ti       8.41563359       3.21087087       1.13623012      -0.00223062      -0.00925016      -0.00333000 
Ti       0.00003313       8.06961481       1.13623020       0.00025938      -0.00528016      -0.00490000 
Ti       5.61053683       8.06979390       1.13623007       0.00601938      -0.00864016       0.00031000 
Ti       2.80512978       3.21069168       5.68106995      -0.00244062      -0.00669016      -0.01308000 
Ti       8.41563349       3.21087077       5.68106983      -0.00016062      -0.00747016       0.00339000 
Ti       0.00003303       8.06961471       5.68106991       0.00283938      -0.00758016       0.00505000 
Ti       5.61053673       8.06979380       5.68106978       0.00561938      -0.00993016       0.00080000 
Ti      -1.37760341       4.03475365       3.40864563      -0.00393063      -0.00444016      -0.00332000 
Ti       4.23290029       4.03493274       3.40864550      -0.00521062      -0.00162016      -0.00293000 
Ti      -4.18270017       8.89367668       3.40864558       0.01305937      -0.00294016      -0.00050000 
Ti       1.42780354       8.89385577       3.40864546       0.00668938      -0.00458016       0.00021000 
Ti      -1.37760351       4.03475355       7.95349443       0.00550938      -0.00156016      -0.00040000 
Ti       4.23290019       4.03493264       7.95349430       0.00844937      -0.00807016       0.00270000 
Ti      -4.18270027       8.89367658       7.95349438       0.01384937      -0.00403016       0.00039000 
Ti       1.42780343       8.89385567       7.95349426       0.00509938      -0.00467016      -0.00024000 
Ti       1.37019688       4.03460813       3.40235550       0.06165938      -0.00060016       0.05247000 
Ti       6.98847674       4.03478747       3.40864544      -0.01483063      -0.00222016       0.00171000 
Ti      -1.42712372       8.89353141       3.40864552      -0.01066062       0.00079984      -0.00255000 
Ti       4.18337998       8.89371049       3.40864540      -0.01112063      -0.00375016       0.00065000 
Ti       1.37796171       4.03460828       7.95349437      -0.00578063       0.00015984      -0.00975000 
Ti       6.98847664       4.03478736       7.95349424      -0.01100062      -0.00269016      -0.00283000 
Ti      -1.42712382       8.89353130       7.95349432      -0.00791063       0.00105984      -0.00031000 
Ti       4.18337988       8.89371039       7.95349419      -0.01392063      -0.00375016      -0.00146000 
Ti       1.42742820       0.82450335       1.13623033       0.01689937       0.00431984       0.00121000 
Ti       7.03793190       0.82468244       1.13623020       0.00393938      -0.00036016      -0.00262000 
Ti      -1.37766856       5.68342638       1.13623028       0.01570937       0.00329984       0.00080000 
Ti       4.23283515       5.68360547       1.13623016       0.00793937      -0.00310016       0.00125000 
Ti       1.42743371       0.82449354       5.68107913       0.01748937      -0.00068016       0.00120000 
Ti       7.03793741       0.82467262       5.68106991       0.00488938       0.00066984       0.00238000 
Ti      -1.37766305       5.68341656       5.68107908       0.01165937       0.00457984       0.00176000 
Ti       4.23283505       5.68360537       5.68106987       0.01087938      -0.00063016       0.00020000 
Ti       4.18302148       0.82436780       1.13623027      -0.01052063       0.00444984      -0.00048000 
Ti       9.79352518       0.82454689       1.13623014      -0.01064063       0.00225984      -0.00048000 
Ti       1.37792472       5.68329083       1.13623022      -0.00981062       0.01035984      -0.00495000 
Ti       6.98842842       5.68346992       1.13623010      -0.00756062       0.00423984       0.00072000 
Ti       4.18302138       0.82436770       5.68107907      -0.00801063       0.00566984       0.00037000 
Ti       9.79352508       0.82454679       5.68106985      -0.01069063       0.00469984       0.00041000 
Ti       1.37792462       5.68329073       5.68106993      -0.01038063       0.00084984      -0.00492000 
Ti       6.98842832       5.68346981       5.68106980      -0.00619062       0.00299984       0.00028000 
Ti       0.00029379       1.64845882       3.40864565      -0.00512063       0.00619984      -0.00580000 
Ti       5.61080872       1.64863791       3.40864553      -0.00967063       0.00995984       0.00014000 
Ti      -2.80479174       6.50738185       3.40864561      -0.00454062       0.01202984       0.00178000 
Ti       2.80571196       6.50756094       3.40864548      -0.00901063      -0.00389016      -0.00115000 
Ti       0.00029369       1.64845872       7.95349445      -0.00112062       0.00845984       0.00137000 
Ti       5.61080862       1.64863781       7.95349432      -0.00696062       0.00552984      -0.00033000 
Ti      -2.80479184       6.50738175       7.95349440      -0.00250062       0.01173984      -0.00182000 
Ti       2.80571186       6.50756083       7.95349428      -0.00756062       0.01171984       0.00109000 
Al       0.00042316       3.23916354       1.13623031      -0.01277063      -0.00301016      -0.01509000 
Al       5.61092687       3.23934262       1.13623018      -0.00519062       0.00208984       0.00060000 
Al      -2.80467359       8.09808656       1.13623026      -0.00329062       0.00355984       0.00009000 
Al       2.80582450       8.09827537       1.13623013      -0.00510063       0.00215984       0.00010000 
Al       0.00042306       3.23916343       5.68107910      -0.00265062       0.00368984      -0.00010000 
Al       5.61092677       3.23934252       5.68106989      -0.00508063       0.00225984      -0.00061000 
Al      -2.80467369       8.09808646       5.68107906      -0.00354062       0.00284984       0.00040000 
Al       2.80583001       8.09826555       5.68106984      -0.00525063       0.00158984       0.00005000 
Al       2.80497246       1.61995791       3.40864559       0.00087938       0.00175984      -0.00152000 
Al       8.41547616       1.62013700       3.40864546       0.00260938      -0.00386016       0.00001000 
Al      -0.00012430       6.47888094       3.40864554       0.00150938       0.00478984      -0.00090000 
Al       5.61037941       6.47906003       3.40864542       0.00415937      -0.00359016       0.00075000 
Al       2.80497236       1.61995781       7.95349439       0.00573938      -0.00253016      -0.00028000 
Al       8.41546484       1.62013690       7.95349426       0.00296938      -0.00258016      -0.00046000 
Al      -0.00012440       6.47888084       7.95349434       0.00471938      -0.00128016      -0.00062000 
Al       5.61037931       6.47905993       7.95349422       0.00487938      -0.00313016      -0.00025000 
