2
Lattice="2.95 0.0 0.0 -1.4749999999999994 2.5547749411640948 0.0 0.0 0.0 4.6846000000000005" Properties=species:S:1:pos:R:3 energy=-3187.22123176 pbc="T T T" n_minim_iter=1
Ti       0.00000000       0.00000000       0.00000000 
Ti       0.00000000       1.70318329       2.34230000 
2
Lattice="2.8774596976567963 -1.517575442307722e-16 2.5031893081183252e-17 -1.4387298488283977 2.491953197118626 -7.821883307914039e-17 3.975064621291901e-17 -1.2047704763310342e-16 4.577496025596864" Properties=species:S:1:pos:R:3 stress="-0.0042702680935414504 2.5869564676971505e-17 2.4015361919641543e-17 2.5869564676971505e-17 -0.004270268446610354 -8.496880353759941e-17 2.4015361919641543e-17 -8.496880353759941e-17 0.00194675534100051" pbc="T T T" n_minim_iter=2
Ti       0.00000000      -0.00000000       0.00000000 
Ti       0.00000000       1.66130213       2.28874801 
