2
Lattice="2.7521911914092487 -1.4515086929000208e-16 2.3942144419409932e-17 -1.376095595704624 2.383467488388785 -7.481362243857805e-17 3.8020125338022974e-17 -1.15232150612859e-16 4.37821744319046" Properties=species:S:1:pos:R:3 energy=-3187.0907336 pbc="T T T" n_minim_iter=0
Ti       0.00000000      -0.00000000       0.00000000 
Ti      -0.00000000       1.58897832       2.18910872 
