2
Lattice="2.947669159675546 -1.5546039906012242e-16 2.5642666447695356e-17 -1.4738345798377726 2.5527563748271014 -8.012735753030573e-17 4.0720554318940226e-17 -1.2341666437450058e-16 4.689186046350875" Properties=species:S:1:pos:R:3 energy=-3187.22278195 pbc="T T T" n_minim_iter=0
Ti       0.00000000      -0.00000000       0.00000000 
Ti       0.00000000       1.70183758       2.34459302 
