2
Lattice="2.8286797707238076 -1.491848854633409e-16 2.4607541728325434e-17 -1.4143398853619034 2.449708541190043 -7.689283398157137e-17 3.907677626458079e-17 -1.1843466921667217e-16 4.499896356052754" Properties=species:S:1:pos:R:3 energy=-3187.26264568 pbc="T T T" n_minim_iter=0
Ti       0.00000000      -0.00000000       0.00000000 
Ti      -0.00000000       1.63313902       2.24994818 
