2
Lattice="3.104100991892198 8.150719818821687e-16 -2.645227425828417e-17 -1.5520504959460977 2.688230316318648 1.172267726633703e-16 -4.111649706131717e-17 1.8811793305588781e-16 4.818489071688159" Properties=species:S:1:pos:R:3 stress="0.12973596702695392 2.959655591335314e-17 2.390276353085391e-17 2.959655591335314e-17 0.1297359668540685 7.177818428794421e-18 2.390276353085391e-17 7.177818428794421e-18 0.13003662929741894" pbc="T T T" n_minim_iter=0
Ti       0.00000000      -0.00000000       0.00000000 
Ti       0.00000000       1.79215354       2.40924454 
