2
Lattice="2.7067117543965806 -2.5101867119638307e-16 -1.090067296702265e-17 -1.3533558771982899 2.3440811410815945 -2.7400518613678862e-17 -1.8202094984449358e-17 -5.773401624767098e-17 4.397252278929971" Properties=species:S:1:pos:R:3 stress="-0.09393280356883421 -3.951902852455424e-17 -3.345246737939695e-17 -3.951902852455424e-17 -0.09393280363786319 8.894511183624298e-17 -3.345246737939695e-17 8.894511183624298e-17 -0.0939477227272926" pbc="T T T" n_minim_iter=0
Ti       0.00000000      -0.00000000       0.00000000 
Ti      -0.00000000       1.56272076       2.19862614 
