2
Lattice="2.8774596976567963 -1.517575442307722e-16 2.5031893081183252e-17 -1.4387298488283977 2.491953197118626 -7.821883307914039e-17 3.975064621291901e-17 -1.2047704763310342e-16 4.577496025596864" Properties=species:S:1:pos:R:3 energy=-3187.30603974 pbc="T T T" n_minim_iter=0
Ti       0.00000000      -0.00000000       0.00000000 
Ti       0.00000000       1.66130213       2.28874801 
