2
Lattice="2.584662801349493 -8.293025931002964e-15 -5.304258073511054e-15 -1.292331400674753 2.238383646466236 7.178066717328706e-15 -8.55681772061797e-15 8.459879956562151e-15 4.396837271700386" Properties=species:S:1:pos:R:3 stress="-0.15434115087427386 -1.2673737423426664e-14 -3.0897194800866853e-15 -1.2673737423426664e-14 -0.15434115106847981 2.7354309926184827e-15 -3.0897194800866853e-15 2.7354309926184827e-15 -0.16256264373898288" pbc="T T T" n_minim_iter=0
Ti       0.00000000      -0.00000000      -0.00000000 
Ti      -0.00000000       1.49225576       2.19841864 
