2
Lattice="2.901241434784522 -1.5301179568978808e-16 2.5238777612546387e-17 -1.4506207173922605 2.5125487856221698 -7.886529903250905e-17 4.0079178848723664e-17 -1.2147277086740907e-16 4.615328286904504" Properties=species:S:1:pos:R:3 energy=-3187.29720928 pbc="T T T" n_minim_iter=0
Ti       0.00000000      -0.00000000       0.00000000 
Ti       0.00000000       1.67503252       2.30766414 
