2
Lattice="2.9926786842898623 -1.578342063902565e-16 2.6034217929267083e-17 -1.4963393421449307 2.591735766564463 -8.135086467295853e-17 4.134233807167613e-17 -1.2530117891533607e-16 4.760787716464209" Properties=species:S:1:pos:R:3 energy=-3187.09559716 pbc="T T T" n_minim_iter=0
Ti       0.00000000      -0.00000000       0.00000000 
Ti       0.00000000       1.72782384       2.38039386 
