2
Lattice="2.8036458934984627 -1.478645959964244e-16 2.438976445115884e-17 -1.401822946749231 2.4280285675526105 -7.621233073573702e-17 3.873094594844024e-17 -1.1738651982942787e-16 4.4600721758574196" Properties=species:S:1:pos:R:3 energy=-3187.21633108 pbc="T T T" n_minim_iter=0
Ti       0.00000000      -0.00000000       0.00000000 
Ti      -0.00000000       1.61868571       2.23003609 
