2
Lattice="2.606942176025633 2.02072089923874e-14 -1.2006009526709726e-14 -1.3034710880127982 2.2576781513990216 1.5748773004900233e-14 -1.9898551498326026e-14 1.8655474248298148e-14 4.461425706186388" Properties=species:S:1:pos:R:3 stress="-0.07692710746508026 3.881350429830164e-15 -1.0065907403094503e-14 3.881350429830164e-15 -0.07692710759215056 9.542577051125658e-15 -1.0065907403094503e-14 9.542577051125658e-15 -0.07122177424126458" pbc="T T T" n_minim_iter=0
Ti       0.00000000      -0.00000000      -0.00000000 
Ti       0.00000000       1.50511876       2.23071285 
