2
Lattice="2.9246395535799374 -1.5424581507532584e-16 2.5442324931893596e-17 -1.4623197767899683 2.532812150904498 -7.950133697594744e-17 4.040241199184703e-17 -1.224524322940959e-16 4.652550283751124" Properties=species:S:1:pos:R:3 energy=-3187.2684837 pbc="T T T" n_minim_iter=0
Ti       0.00000000      -0.00000000       0.00000000 
Ti       0.00000000       1.68854143       2.32627514 
