2
Lattice="3.0577572051926003 -1.6126645481493922e-16 2.66003556855823e-17 -1.5288786025962997 2.6480954189201125 -8.311991324301283e-17 4.2241364828704695e-17 -1.2802596705713903e-16 4.864315376999852" Properties=species:S:1:pos:R:3 energy=-3186.8400178 pbc="T T T" n_minim_iter=0
Ti       0.00000000      -0.00000000       0.00000000 
Ti       0.00000000       1.76539694       2.43215769 
