2
Lattice="2.5629772175388736 -1.1394371872527206e-15 -4.1853027040502595e-15 -1.2814886087694368 2.2196033804181785 5.491165355843366e-15 -6.7242203417292456e-15 6.314889349609209e-15 4.327312376517671" Properties=species:S:1:pos:R:3 stress="-0.2767115698485532 -7.2589931051195e-16 -1.049059249617644e-15 -7.2589931051195e-16 -0.2767115697627044 1.6713597932212138e-15 -1.049059249617644e-15 1.6713597932212138e-15 -0.27528938396159347" pbc="T T T" n_minim_iter=0
Ti       0.00000000      -0.00000000      -0.00000000 
Ti      -0.00000000       1.47973558       2.16365619 
