2
Lattice="2.9703444289182017 -1.566562952799163e-16 2.5839925479935292e-17 -1.4851722144591004 2.572393734033479 -8.074374604179737e-17 4.103380166213725e-17 -1.243660606405423e-16 4.725258125804193" Properties=species:S:1:pos:R:3 energy=-3187.16401534 pbc="T T T" n_minim_iter=0
Ti       0.00000000      -0.00000000       0.00000000 
Ti       0.00000000       1.71492915       2.36262906 
