2
Lattice="3.0146844649074724 -1.5899479370556423e-16 2.6225652877265332e-17 -1.5073422324537358 2.610793331613871 -8.194905427829226e-17 4.164633676909735e-17 -1.2622254420216543e-16 4.795794765702569" Properties=species:S:1:pos:R:3 energy=-3187.01893428 pbc="T T T" n_minim_iter=0
Ti       0.00000000      -0.00000000       0.00000000 
Ti       0.00000000       1.74052888       2.39789738 
