2
Lattice="3.036373588071057 -1.6013868047155602e-16 2.6414333126200733e-17 -1.518186794035528 2.6295766632637316 -8.253863609094001e-17 4.1945961004406766e-17 -1.2713065128238877e-16 4.830298072616246" Properties=species:S:1:pos:R:3 energy=-3186.93434915 pbc="T T T" n_minim_iter=0
Ti       0.00000000      -0.00000000       0.00000000 
Ti       0.00000000       1.75305110       2.41514904 
