2
Lattice="2.662539872275295 -3.9846281477010775e-17 1.1195120827427707e-16 -1.3312699361376468 2.3058271690836407 -1.4099761418082523e-16 1.8173105169315975e-16 -1.5447093379698365e-16 4.4107067374822995" Properties=species:S:1:pos:R:3 stress="-0.097322554316194 -6.062593539331207e-17 1.3264968498390004e-16 -6.062593539331207e-17 -0.09732255425091893 -4.4843266535383543e-17 1.3264968498390004e-16 -4.4843266535383543e-17 -0.09904836091133096" pbc="T T T" n_minim_iter=0
Ti       0.00000000      -0.00000000       0.00000000 
Ti       0.00000000       1.53721811       2.20535337 
