2
Lattice="3.1250752834804656 8.205793920656893e-16 -2.6631011262948397e-17 -1.5625376417402315 2.7063945856701155 1.1801886947923268e-16 -4.1394319658167185e-17 1.893890387290609e-16 4.851047417910928" Properties=species:S:1:pos:R:3 energy=-3186.6310263 pbc="T T T" n_minim_iter=0
Ti       0.00000000      -0.00000000       0.00000000 
Ti       0.00000000       1.80426305       2.42552371 
