2
Lattice="2.8532782208049268 -1.5048221045428128e-16 2.482153109293576e-17 -1.426639110402463 2.471011423858991 -7.756150088330677e-17 3.941659137558199e-17 -1.1946458760077216e-16 4.539027853732412" Properties=species:S:1:pos:R:3 energy=-3187.29358791 pbc="T T T" n_minim_iter=0
Ti       0.00000000      -0.00000000       0.00000000 
Ti      -0.00000000       1.64734095       2.26951393 
