2
Lattice="2.778156792718162 -1.4652029798862985e-16 2.4168027046465538e-17 -1.3890783963590805 2.4059543587520933 -7.551945301414971e-17 3.8378826949787276e-17 -1.1631931057838814e-16 4.419523820788232" Properties=species:S:1:pos:R:3 energy=-3187.15764627 pbc="T T T" n_minim_iter=0
Ti       0.00000000      -0.00000000       0.00000000 
Ti      -0.00000000       1.60396957       2.20976191 
