2
Lattice="3.32 0.0 0.0 0.0 3.32 0.0 0.0 0.0 3.32" Properties=species:S:1:pos:R:3 energy=-3186.95002858 pbc="T T T" n_minim_iter=1
Ti       0.00000000       0.00000000       0.00000000 
Ti       1.66000000       1.66000000       1.66000000 
2
Lattice="3.121421168277664 -2.5758023442771642e-14 -2.6613658524144818e-14 -2.5758023442771642e-14 3.1214211682777675 1.5876396528839046e-15 -2.6613658524144818e-14 1.5876396528839052e-15 3.1214211682800754" Properties=species:S:1:pos:R:3 stress="-0.03810553769293326 -1.029930311781399e-12 -2.2679052067244389e-13 -1.029930311781399e-12 -0.038105537695140905 2.97207320231726e-13 -2.2679052067244389e-13 2.97207320231726e-13 -0.03810553769361473" pbc="T T T" n_minim_iter=2
Ti      -0.00000000       0.00000000      -0.00000000 
Ti       1.56071058       1.56071058       1.56071058 
2
Lattice="3.173463222930633 1.3920853508158e-12 2.852461157224214e-13 1.3920853508158e-12 3.1734632229337785 -4.076573344583803e-13 2.8524611572242137e-13 -4.0765733445838023e-13 3.173463222934024" Properties=species:S:1:pos:R:3 stress="0.0029245466413832873 7.584099861461164e-13 5.725821852841292e-13 7.584099861461164e-13 0.0029245466438164746 1.3132975848356102e-13 5.725821852841292e-13 1.3132975848356102e-13 0.002924546643437199" pbc="T T T" n_minim_iter=3
Ti      -0.00000000       0.00000000       0.00000000 
Ti       1.58673161       1.58673161       1.58673161 
