2
Lattice="3.1196653176931965 1.3684861248205318e-12 2.804105016235726e-13 1.3684861248205318e-12 3.1196653176962887 -4.0074655304769013e-13 2.8041050162357253e-13 -4.007465530476901e-13 3.1196653176965303" Properties=species:S:1:pos:R:3 energy=-3187.15151957 pbc="T T T" n_minim_iter=0
Ti      -0.00000000       0.00000000       0.00000000 
Ti       1.55983266       1.55983266       1.55983266 
