2
Lattice="3.2254964582726178 1.414910478944506e-12 2.899231128158572e-13 1.414910478944506e-12 3.2254964582758148 -4.1434142957235185e-13 2.8992311281585715e-13 -4.143414295723518e-13 3.225496458276065" Properties=species:S:1:pos:R:3 energy=-3187.14646854 pbc="T T T" n_minim_iter=0
Ti      -0.00000000       0.00000000       0.00000000 
Ti       1.61274823       1.61274823       1.61274823 
