2
Lattice="3.0061209129598163 1.3186782362796113e-12 2.702045852045061e-13 1.3186782362796113e-12 3.006120912962796 -3.861608445882967e-13 2.7020458520450607e-13 -3.8616084458829663e-13 3.006120912963029" Properties=species:S:1:pos:R:3 energy=-3186.87516367 pbc="T T T" n_minim_iter=0
Ti      -0.00000000       0.00000000       0.00000000 
Ti       1.50306046       1.50306046       1.50306046 
