2
Lattice="2.9149696488317796 1.278693421398473e-12 2.620114718109625e-13 1.278693421398473e-12 2.9149696488346692 -3.7445171838873984e-13 2.6201147181096247e-13 -3.744517183887398e-13 2.914969648834895" Properties=species:S:1:pos:R:3 energy=-3186.40954261 pbc="T T T" n_minim_iter=0
Ti      -0.00000000       0.00000000       0.00000000 
Ti       1.45748482       1.45748482       1.45748482 
