2
Lattice="3.348724543620253 1.468966253463016e-12 3.009994449565093e-13 1.468966253463016e-12 3.3487245436235717 -4.3017108609404796e-13 3.009994449565092e-13 -4.301710860940479e-13 3.3487245436238315" Properties=species:S:1:pos:R:3 energy=-3186.86226419 pbc="T T T" n_minim_iter=0
Ti      -0.00000000       0.00000000       0.00000000 
Ti       1.67436227       1.67436227       1.67436227 
