2
Lattice="3.4185096275110713 1.4995784856413824e-12 3.07272063454617e-13 1.4995784856413824e-12 3.418509627514459 -4.391355515015323e-13 3.0727206345461696e-13 -4.3913555150153223e-13 3.418509627514724" Properties=species:S:1:pos:R:3 energy=-3186.60946963 pbc="T T T" n_minim_iter=0
Ti      -0.00000000       0.00000000       0.00000000 
Ti       1.70925481       1.70925481       1.70925481 
