2
Lattice="3.1467942038899674 1.3803866014939617e-12 2.8284897620729824e-13 1.3803866014939617e-12 3.1467942038930867 -4.042314806037711e-13 2.828489762072982e-13 -4.0423148060377104e-13 3.14679420389333" Properties=species:S:1:pos:R:3 energy=-3187.1744027 pbc="T T T" n_minim_iter=0
Ti      -0.00000000       0.00000000       0.00000000 
Ti       1.57339710       1.57339710       1.57339710 
