2
Lattice="3.173463222930633 1.3920853508158e-12 2.852461157224214e-13 1.3920853508158e-12 3.1734632229337785 -4.076573344583803e-13 2.8524611572242137e-13 -4.0765733445838023e-13 3.173463222934024" Properties=species:S:1:pos:R:3 energy=-3187.18012917 pbc="T T T" n_minim_iter=0
Ti      -0.00000000       0.00000000       0.00000000 
Ti       1.58673161       1.58673161       1.58673161 
