2
Lattice="3.3723078878331045 1.4793114270779915e-12 3.031192291984859e-13 1.4793114270779915e-12 3.3723078878364463 -4.3320055975233954e-13 3.0311922919848584e-13 -4.332005597523395e-13 3.372307887836708" Properties=species:S:1:pos:R:3 energy=-3186.78249194 pbc="T T T" n_minim_iter=0
Ti      -0.00000000       0.00000000       0.00000000 
Ti       1.68615394       1.68615394       1.68615394 
