2
Lattice="3.199691381126454 1.403590710178233e-12 2.8760362854748016e-13 1.403590710178233e-12 3.1996913811296253 -4.1102655612781784e-13 2.876036285474801e-13 -4.110265561278178e-13 3.199691381129873" Properties=species:S:1:pos:R:3 energy=-3187.17030121 pbc="T T T" n_minim_iter=0
Ti      -0.00000000       0.00000000       0.00000000 
Ti       1.59984569       1.59984569       1.59984569 
