2
Lattice="3.0353083782626866 1.3314817383280919e-12 2.7282809476506064e-13 1.3314817383280919e-12 3.0353083782656953 -3.8991021348565434e-13 2.728280947650606e-13 -3.899102134856543e-13 3.0353083782659303" Properties=species:S:1:pos:R:3 energy=-3186.97436287 pbc="T T T" n_minim_iter=0
Ti      -0.00000000       0.00000000       0.00000000 
Ti       1.51765419       1.51765419       1.51765419 
