2
Lattice="3.0639450541758957 1.344043628677659e-12 2.7540209672998694e-13 1.344043628677659e-12 3.063945054178933 -3.93588828976193e-13 2.754020967299869e-13 -3.9358882897619296e-13 3.06394505417917" Properties=species:S:1:pos:R:3 energy=-3187.05253694 pbc="T T T" n_minim_iter=0
Ti      -0.00000000       0.00000000       0.00000000 
Ti       1.53197253       1.53197253       1.53197253 
