2
Lattice="2.9763553845046378 1.305621158503402e-12 2.6752911655154843e-13 1.305621158503402e-12 2.976355384507588 -3.823372187459976e-13 2.675291165515484e-13 -3.8233721874599756e-13 2.9763553845078183" Properties=species:S:1:pos:R:3 energy=-3186.75235115 pbc="T T T" n_minim_iter=0
Ti      -0.00000000       0.00000000       0.00000000 
Ti       1.48817769       1.48817769       1.48817769 
