2
Lattice="2.883282686491351 1.2647934789736711e-12 2.5916329545229566e-13 1.2647934789736711e-12 2.8832826864942094 -3.703812686316908e-13 2.591632954522956e-13 -3.7038126863169076e-13 2.8832826864944328" Properties=species:S:1:pos:R:3 energy=-3186.15703357 pbc="T T T" n_minim_iter=0
Ti      -0.00000000       0.00000000       0.00000000 
Ti       1.44164134       1.44164134       1.44164134 
