2
Lattice="3.2508951139140874 1.426051965063968e-12 2.9220606596746486e-13 1.426051965063968e-12 3.2508951139173097 -4.1760409484693666e-13 2.922060659674648e-13 -4.176040948469366e-13 3.2508951139175615" Properties=species:S:1:pos:R:3 energy=-3187.10956378 pbc="T T T" n_minim_iter=0
Ti      -0.00000000       0.00000000       0.00000000 
Ti       1.62544756       1.62544756       1.62544756 
