2
Lattice="3.3005347565340846 1.4478271092697404e-12 2.9666791545130014e-13 1.4478271092697404e-12 3.3005347565373557 -4.2398071337766825e-13 2.966679154513001e-13 -4.239807133776682e-13 3.3005347565376115" Properties=species:S:1:pos:R:3 energy=-3187.00287718 pbc="T T T" n_minim_iter=0
Ti      -0.00000000       0.00000000       0.00000000 
Ti       1.65026738       1.65026738       1.65026738 
