2
Lattice="3.092056212075944 1.3563749929816034e-12 2.779288626119761e-13 1.3563749929816034e-12 3.092056212079009 -3.9719993737513943e-13 2.7792886261197605e-13 -3.971999373751394e-13 3.0920562120792483" Properties=species:S:1:pos:R:3 energy=-3187.11119512 pbc="T T T" n_minim_iter=0
Ti      -0.00000000       0.00000000       0.00000000 
Ti       1.54602811       1.54602811       1.54602811 
