2
Lattice="3.32480426603885 1.4584732791730012e-12 2.9884937552517167e-13 1.4584732791730012e-12 3.324804266042145 -4.270983305858451e-13 2.988493755251716e-13 -4.2709833058584507e-13 3.324804266042403" Properties=species:S:1:pos:R:3 energy=-3186.9361296 pbc="T T T" n_minim_iter=0
Ti      -0.00000000       0.00000000       0.00000000 
Ti       1.66240213       1.66240213       1.66240213 
