2
Lattice="3.2759029821633687 1.4370220266652513e-12 2.9445389327142144e-13 1.4370220266652513e-12 3.2759029821666155 -4.2081656028133166e-13 2.944538932714214e-13 -4.208165602813316e-13 3.2759029821668695" Properties=species:S:1:pos:R:3 energy=-3187.06117374 pbc="T T T" n_minim_iter=0
Ti      -0.00000000       0.00000000       0.00000000 
Ti       1.63795149       1.63795149       1.63795149 
