2
Lattice="2.9407517498875624 6.606719915877504e-13 -8.14900941241945e-13 -1.4703758749432085 2.5467657219661857 8.236696722707455e-13 -1.294062694692209e-12 7.63206355531295e-13 4.637548617148825" Properties=species:S:1:pos:R:3 energy=-3187.2173024 pbc="T T T" n_minim_iter=0
Ti       0.00000000      -0.00000000       0.00000000 
Ti      -0.00000000       1.69784381       2.31877431 
