2
Lattice="3.1548455547277907 1.405682941918396e-11 2.5422063282370703e-11 -1.5774227773517218 2.7321763970377013 -2.441833016295136e-11 4.000053979446869e-11 -2.1265451332830297e-11 4.685441780012757" Properties=species:S:1:pos:R:3 energy=-3186.70279462 pbc="T T T" n_minim_iter=0
Ti       0.00000000      -0.00000000       0.00000000 
Ti       0.00000000       1.82145093       2.34272089 
