2
Lattice="2.6649283586310744 5.987052549412861e-13 -7.384685320254745e-13 -1.3324641793150178 2.307895658148201 7.464148131043696e-13 -1.1726880288564541e-12 6.916225622991068e-13 4.202576713536854" Properties=species:S:1:pos:R:3 energy=-3186.68205516 pbc="T T T" n_minim_iter=0
Ti       0.00000000      -0.00000000       0.00000000 
Ti      -0.00000000       1.53859710       2.10128836 
