2
Lattice="2.797066468707161 6.283915242266646e-13 -7.750848394982329e-13 -1.3985332343530357 2.4223306182974347 7.834251298796661e-13 -1.2308347251231944e-12 7.259160538941792e-13 4.410957754092028" Properties=species:S:1:pos:R:3 energy=-3187.19943949 pbc="T T T" n_minim_iter=0
Ti       0.00000000      -0.00000000       0.00000000 
Ti      -0.00000000       1.61488708       2.20547888 
