2
Lattice="3.0505814475092636 6.853464324228137e-13 -8.45335446287012e-13 -1.525290723754038 2.6418810302092415 8.544316674133551e-13 -1.3423926887037754e-12 7.917101975350168e-13 4.810749419408611" Properties=species:S:1:pos:R:3 energy=-3186.8732771 pbc="T T T" n_minim_iter=0
Ti       0.00000000      -0.00000000       0.00000000 
Ti      -0.00000000       1.76125402       2.40537471 
