2
Lattice="2.9633738061945363 6.657542835543233e-13 -8.211696563683021e-13 -1.4816869030966913 2.5663569974164826 8.300058418250671e-13 -1.3040174143128641e-12 7.690774043708748e-13 4.673223469998095" Properties=species:S:1:pos:R:3 energy=-3187.16702971 pbc="T T T" n_minim_iter=0
Ti       0.00000000      -0.00000000       0.00000000 
Ti      -0.00000000       1.71090466       2.33661173 
