2
Lattice="3.0076097876979286 6.756923798253881e-13 -8.334277271031929e-13 -1.5038048938483788 2.6046664811648736 8.423958153714118e-13 -1.3234832306398707e-12 7.805578641641384e-13 4.7429833587262475" Properties=species:S:1:pos:R:3 energy=-3187.03634957 pbc="T T T" n_minim_iter=0
Ti       0.00000000      -0.00000000       0.00000000 
Ti      -0.00000000       1.73644432       2.37149168 
