2
Lattice="3.175499388218044 4.527335501159073e-12 -3.6891672765473905e-12 4.527335501159075e-12 3.1754993882046842 -3.2577838332287706e-12 -3.689167276547391e-12 -3.2577838332287706e-12 3.1754993882227973" Properties=species:S:1:pos:R:3 stress="0.002407160749306076 1.1078715396154029e-13 -1.8055449114519505e-12 1.1078715396154029e-13 0.0024071607482866364 3.786113171998512e-12 -1.8055449114519505e-12 3.786113171998512e-12 0.002407160746741083" pbc="T T T" n_minim_iter=3
Ti      -0.00000000       0.00000000      -0.00000000 
Ti       1.58774969       1.58774969       1.58774969 
