2
Lattice="3.2780048751013444 4.673478413846197e-12 -3.808254022172191e-12 4.6734784138461996e-12 3.2780048750875537 -3.362945471497281e-12 -3.808254022172192e-12 -3.362945471497281e-12 3.2780048751062516" Properties=species:S:1:pos:R:3 energy=-3187.04231012 pbc="T T T" n_minim_iter=0
Ti      -0.00000000       0.00000000      -0.00000000 
Ti       1.63900244       1.63900244       1.63900244 
