2
Lattice="3.03725590029847 4.330240627519826e-12 -3.5285615608854963e-12 4.3302406275198275e-12 3.0372559002856923 -3.11595814065754e-12 -3.528561560885497e-12 -3.11595814065754e-12 3.037255900303017" Properties=species:S:1:pos:R:3 energy=-3186.9689587 pbc="T T T" n_minim_iter=0
Ti      -0.00000000       0.00000000      -0.00000000 
Ti       1.51862795       1.51862795       1.51862795 
