2
Lattice="3.3977445899353755 4.8441923065580384e-12 -3.9473627996160786e-12 4.844192306558041e-12 3.3977445899210807 -3.4857879159420987e-12 -3.947362799616079e-12 -3.4857879159420987e-12 3.3977445899404617" Properties=species:S:1:pos:R:3 energy=-3186.65644927 pbc="T T T" n_minim_iter=0
Ti      -0.00000000       0.00000000      -0.00000000 
Ti       1.69887229       1.69887229       1.69887229 
