2
Lattice="3.0080497076622397 4.288601119332141e-12 -3.4946309827389885e-12 4.288601119332142e-12 3.008049707649585 -3.085995148835372e-12 -3.4946309827389893e-12 -3.085995148835372e-12 3.008049707666743" Properties=species:S:1:pos:R:3 energy=-3186.89213875 pbc="T T T" n_minim_iter=0
Ti      -0.00000000       0.00000000      -0.00000000 
Ti       1.50402485       1.50402485       1.50402485 
