2
Lattice="3.350873160507807 4.7773673255094414e-12 -3.892909460940985e-12 4.777367325509444e-12 3.3508731604937094 -3.43770194067912e-12 -3.892909460940986e-12 -3.43770194067912e-12 3.350873160512823" Properties=species:S:1:pos:R:3 energy=-3186.83112662 pbc="T T T" n_minim_iter=0
Ti      -0.00000000       0.00000000      -0.00000000 
Ti       1.67543658       1.67543658       1.67543658 
