2
Lattice="2.9168399588356646 4.158562632961631e-12 -3.3886671705834678e-12 4.158562632961633e-12 2.9168399588233935 -2.9924219470068504e-12 -3.3886671705834686e-12 -2.9924219470068504e-12 2.9168399588400313" Properties=species:S:1:pos:R:3 energy=-3186.73468258 pbc="T T T" n_minim_iter=0
Ti      -0.00000000       0.00000000      -0.00000000 
Ti       1.45841998       1.45841998       1.45841998 
