54
Lattice="9.497192444836418 0.0 0.0 0.0 9.497192444836418 0.0 0.0 0.0 9.497192444836418" Properties=species:S:1:pos:R:3:force:R:3 virial="0.5743393320603297 0.00029406139583435545 -5.346570833351917e-06 0.00029406139583435545 0.5714254509561529 -0.0014703069791717775 -5.346570833351917e-06 -0.0014703069791717775 0.5657901652978" energy=-86052.7760724 pbc="T T T"
Ti       0.01000054       0.00000000       0.00000000      -0.02504944      -0.00085963       0.00161963 
Ti       3.16572765       0.00000000       0.00000000      -0.00953944      -0.00105963       0.00128963 
Ti       6.33146480       0.00000000       0.00000000      -0.00914944      -0.00121963       0.00154963 
Ti       0.00000000       3.16572765       0.00000000       0.00131056       0.00150037       0.00116963 
Ti       3.16572765       3.16572765       0.00000000      -0.00090944       0.00543037       0.00087963 
Ti       6.33146480       3.16572765       0.00000000      -0.00053944      -0.00122963       0.00137963 
Ti       0.00000000       6.33146480       0.00000000       0.00130056      -0.00038963       0.00120963 
Ti       3.16572765       6.33146480       0.00000000      -0.00119944      -0.00423963       0.00117963 
Ti       6.33146480       6.33146480       0.00000000      -0.00065944       0.00321037       0.00112963 
Ti       0.00000000       0.00000000       3.16572765       0.00283056      -0.00068963      -0.00133037 
Ti       3.16572765       0.00000000       3.16572765      -0.00294944      -0.00062963       0.00240963 
Ti       6.33146480       0.00000000       3.16572765      -0.00032944      -0.00136963      -0.00669037 
Ti       0.00000000       3.16572765       3.16572765       0.00668056       0.00140037      -0.00019037 
Ti       3.16572765       3.16572765       3.16572765      -0.00399944       0.00141037      -0.00012037 
Ti       6.33146480       3.16572765       3.16572765      -0.00225944       0.00242037      -0.00179037 
Ti       0.00000000       6.33146480       3.16572765       0.00623056      -0.00073963      -0.00082037 
Ti       3.16572765       6.33146480       3.16572765      -0.00409944      -0.00097963      -0.00107037 
Ti       6.33146480       6.33146480       3.16572765      -0.00231944      -0.00063963      -0.00180037 
Ti       0.00000000       0.00000000       6.33146480       0.00207056      -0.00039963      -0.00044037 
Ti       3.16572765       0.00000000       6.33146480      -0.00224944      -0.00056963      -0.00393037 
Ti       6.33146480       0.00000000       6.33146480      -0.00058944      -0.00153963       0.00476963 
Ti       0.00000000       3.16572765       6.33146480       0.00715056       0.00194037      -0.00072037 
Ti       3.16572765       3.16572765       6.33146480      -0.00440944       0.00219037      -0.00056037 
Ti       6.33146480       3.16572765       6.33146480      -0.00270944       0.00297037       0.00073963 
Ti       0.00000000       6.33146480       6.33146480       0.00647056      -0.00146963      -0.00041037 
Ti       3.16572765       6.33146480       6.33146480      -0.00386944      -0.00158963      -0.00009037 
Ti       6.33146480       6.33146480       6.33146480      -0.00256944      -0.00128963       0.00035963 
Ti       1.58286857       1.58286857       1.58286857       0.00906056       0.00716037       0.00669963 
Ti       4.74859622       1.58286857       1.58286857      -0.00567944       0.00165037       0.00129963 
Ti       7.91432387       1.58286857       1.58286857       0.01013056      -0.00441963      -0.00478037 
Ti       1.58286857       4.74859622       1.58286857       0.00326056       0.00181037       0.00095963 
Ti       4.74859622       4.74859622       1.58286857      -0.00902944       0.00116037       0.00106963 
Ti       7.91432387       4.74859622       1.58286857       0.00382056       0.00227037       0.00106963 
Ti       1.58286857       7.91432387       1.58286857       0.00828056      -0.00893963       0.00591963 
Ti       4.74859622       7.91432387       1.58286857      -0.00484944      -0.00308963       0.00092963 
Ti       7.91432387       7.91432387       1.58286857       0.01005056       0.00237037      -0.00493037 
Ti       1.58286857       1.58286857       4.74859622       0.00299056       0.00149037      -0.00216037 
Ti       4.74859622       1.58286857       4.74859622      -0.00976944       0.00145037      -0.00273037 
Ti       7.91432387       1.58286857       4.74859622       0.00413056       0.00121037      -0.00236037 
Ti       1.58286857       4.74859622       4.74859622       0.00241056       0.00130037      -0.00231037 
Ti       4.74859622       4.74859622       4.74859622      -0.00558944       0.00126037      -0.00235037 
Ti       7.91432387       4.74859622       4.74859622       0.00361056       0.00232037      -0.00217037 
Ti       1.58286857       7.91432387       4.74859622       0.00235056      -0.00296963      -0.00165037 
Ti       4.74859622       7.91432387       4.74859622      -0.00864944      -0.00314963      -0.00201037 
Ti       7.91432387       7.91432387       4.74859622       0.00382056      -0.00397963      -0.00204037 
Ti       1.58286857       1.58286857       7.91432387       0.00840056       0.00648037      -0.00443037 
Ti       4.74859622       1.58286857       7.91432387      -0.00497944       0.00110037       0.00152963 
Ti       7.91432387       1.58286857       7.91432387       0.01047056      -0.00474963       0.00722963 
Ti       1.58286857       4.74859622       7.91432387       0.00247056       0.00249037       0.00130963 
Ti       4.74859622       4.74859622       7.91432387      -0.00888944       0.00163037       0.00139963 
Ti       7.91432387       4.74859622       7.91432387       0.00416056       0.00258037       0.00121963 
Ti       1.58286857       7.91432387       7.91432387       0.00803056      -0.00905963      -0.00419037 
Ti       4.74859622       7.91432387       7.91432387      -0.00527944      -0.00309963       0.00097963 
Ti       7.91432387       7.91432387       7.91432387       0.01062056       0.00215037       0.00677963 
