54
Lattice="9.497192444836418 0.0 0.0 0.0 9.497192444836418 0.0 0.0 0.0 9.497192444836418" Properties=species:S:1:pos:R:3:force:R:3 virial="0.6061781613729404 -0.0003047545375010593 0.0022883323166746207 -0.0003047545375010593 0.6045955764062683 -2.673285416675959e-05 0.0022883323166746207 -2.673285416675959e-05 0.6074025260937779" energy=-86052.8072641 pbc="T T T"
Ti       0.01000054       0.00000000       0.00000000      -0.02881130       0.00147000      -0.00993000 
Ti       3.16572765       0.00000000       0.00000000      -0.01449130       0.00169000      -0.00802000 
Ti       6.33146480       0.00000000       0.00000000      -0.00088130       0.00107000      -0.00839000 
Ti       0.00000000       3.16572765       0.00000000      -0.00175130       0.00001000      -0.00988000 
Ti       3.16572765       3.16572765       0.00000000      -0.00643130       0.00408000      -0.00795000 
Ti       6.33146480       3.16572765       0.00000000       0.00690870      -0.00377000      -0.00835000 
Ti       0.00000000       6.33146480       0.00000000      -0.00274130      -0.00149000      -0.00970000 
Ti       3.16572765       6.33146480       0.00000000      -0.00609130      -0.00581000      -0.00774000 
Ti       6.33146480       6.33146480       0.00000000       0.00705870       0.00269000      -0.00906000 
Ti       0.00000000       0.00000000       3.16572765      -0.00133130       0.00128000       0.00476000 
Ti       3.16572765       0.00000000       3.16572765      -0.00569130       0.00176000       0.00960000 
Ti       6.33146480       0.00000000       3.16572765       0.00542870       0.00243000       0.00095000 
Ti       0.00000000       3.16572765       3.16572765       0.00237870      -0.00006000       0.00458000 
Ti       3.16572765       3.16572765       3.16572765      -0.00691130      -0.00037000       0.00434000 
Ti       6.33146480       3.16572765       3.16572765       0.00345870      -0.00057000       0.00525000 
Ti       0.00000000       6.33146480       3.16572765       0.00324870      -0.00125000       0.00496000 
Ti       3.16572765       6.33146480       3.16572765      -0.00813130      -0.00140000       0.00492000 
Ti       6.33146480       6.33146480       3.16572765       0.00382870      -0.00189000       0.00462000 
Ti       0.00000000       0.00000000       6.33146480      -0.00181130       0.00147000       0.00367000 
Ti       3.16572765       0.00000000       6.33146480      -0.00643130       0.00132000      -0.00251000 
Ti       6.33146480       0.00000000       6.33146480       0.00653870       0.00156000       0.00674000 
Ti       0.00000000       3.16572765       6.33146480       0.00177870      -0.00021000       0.00400000 
Ti       3.16572765       3.16572765       6.33146480      -0.00778130      -0.00050000       0.00233000 
Ti       6.33146480       3.16572765       6.33146480       0.00488870      -0.00004000       0.00240000 
Ti       0.00000000       6.33146480       6.33146480       0.00232870      -0.00132000       0.00395000 
Ti       3.16572765       6.33146480       6.33146480      -0.00851130      -0.00095000       0.00207000 
Ti       6.33146480       6.33146480       6.33146480       0.00516870      -0.00160000       0.00348000 
Ti       1.58286857       1.58286857       1.58286857       0.00345870       0.00670000       0.00307000 
Ti       4.74859622       1.58286857       1.58286857       0.00032870       0.00159000      -0.00447000 
Ti       7.91432387       1.58286857       1.58286857       0.01087870      -0.00475000      -0.00883000 
Ti       1.58286857       4.74859622       1.58286857      -0.00304130       0.00003000      -0.00276000 
Ti       4.74859622       4.74859622       1.58286857      -0.00392130      -0.00132000      -0.00388000 
Ti       7.91432387       4.74859622       1.58286857       0.00584870      -0.00015000      -0.00197000 
Ti       1.58286857       7.91432387       1.58286857       0.00219870      -0.00665000       0.00284000 
Ti       4.74859622       7.91432387       1.58286857       0.00014870      -0.00033000      -0.00422000 
Ti       7.91432387       7.91432387       1.58286857       0.01218870       0.00499000      -0.00783000 
Ti       1.58286857       1.58286857       4.74859622      -0.00617130       0.00175000       0.01135000 
Ti       4.74859622       1.58286857       4.74859622      -0.00503130       0.00158000       0.00779000 
Ti       7.91432387       1.58286857       4.74859622       0.00976870       0.00145000       0.00985000 
Ti       1.58286857       4.74859622       4.74859622      -0.00608130      -0.00263000       0.00938000 
Ti       4.74859622       4.74859622       4.74859622      -0.00112130      -0.00165000       0.00730000 
Ti       7.91432387       4.74859622       4.74859622       0.00871870      -0.00153000       0.00805000 
Ti       1.58286857       7.91432387       4.74859622      -0.00601130       0.00100000       0.00856000 
Ti       4.74859622       7.91432387       4.74859622      -0.00369130       0.00006000       0.00711000 
Ti       7.91432387       7.91432387       4.74859622       0.00878870      -0.00003000       0.00803000 
Ti       1.58286857       1.58286857       7.91432387       0.00101870       0.00738000      -0.01338000 
Ti       4.74859622       1.58286857       7.91432387      -0.00084130       0.00154000      -0.00244000 
Ti       7.91432387       1.58286857       7.91432387       0.01435870      -0.00462000      -0.00047000 
Ti       1.58286857       4.74859622       7.91432387      -0.00443130      -0.00251000      -0.00577000 
Ti       4.74859622       4.74859622       7.91432387      -0.00491130      -0.00200000      -0.00215000 
Ti       7.91432387       4.74859622       7.91432387       0.00797870      -0.00217000      -0.00519000 
Ti       1.58286857       7.91432387       7.91432387       0.00144870      -0.00480000      -0.01046000 
Ti       4.74859622       7.91432387       7.91432387      -0.00057130       0.00062000      -0.00168000 
Ti       7.91432387       7.91432387       7.91432387       0.01347870       0.00685000       0.00108000 
