2
Lattice="2.82410522 0.0 0.0 0.0 2.82410522 0.0 0.0 0.0 4.06471199" Properties=species:S:1:pos:R:3:tags:I:1 spacegroup="P 1" energy=-1704.10066865 unit_cell=conventional pbc="T T T" n_minim_iter=1
Ti       1.41205261       1.41205261       2.03235600        0 
Al       0.00000000       0.00000000       0.00000000        1 
2
Lattice="2.8266275956046965 -9.62085635523083e-19 4.572650077507309e-19 -9.62085635523083e-19 2.8266275956046965 -7.838267474810869e-19 6.581378577714038e-19 -1.128155550298185e-18 4.033926090163258" Properties=species:S:1:pos:R:3:tags:I:1 spacegroup="P 1" stress="-0.008803204442835695 7.534191380762719e-19 -2.6983448194113594e-20 7.534191380762719e-19 -0.008803204442835688 5.382265659055694e-20 -2.6983448194113594e-20 5.382265659055694e-20 0.019450980727964518" unit_cell=conventional pbc="T T T" n_minim_iter=2
Ti       1.41331380       1.41331380       2.01696305        0 
Al       0.00000000       0.00000000       0.00000000        1 
2
Lattice="2.839640809386488 -2.711906818273731e-18 8.697574896006277e-19 -2.711906818273731e-18 2.8396408093864878 -1.5001606798942495e-18 1.25183497814999e-18 -2.1591692332528277e-18 3.974368079708693" Properties=species:S:1:pos:R:3:tags:I:1 spacegroup="P 1" stress="-0.012475463366883401 9.740529265340783e-19 -9.74439101696663e-19 9.740529265340783e-19 -0.01247546336688329 5.412966656056861e-19 -9.74439101696663e-19 5.412966656056861e-19 0.012180283661050572" unit_cell=conventional pbc="T T T" n_minim_iter=3
Ti       1.41982040       1.41982040       1.98718404        0 
Al       0.00000000       0.00000000       0.00000000        1 
2
Lattice="2.87370397318051 -7.374435399316056e-18 3.7338909502326926e-18 -7.374435399316056e-18 2.8737039731805094 -4.391006476226139e-18 5.3741592938110595e-18 -6.319940399417568e-18 3.8557382705277226" Properties=species:S:1:pos:R:3:tags:I:1 spacegroup="P 1" stress="-0.013623577507704295 7.618701239207294e-19 6.67189687648845e-19 7.618701239207294e-19 -0.013623577507704309 1.797846432868302e-18 6.67189687648845e-19 1.797846432868302e-18 0.00434180135564462" unit_cell=conventional pbc="T T T" n_minim_iter=4
Ti       1.43685199       1.43685199       1.92786913        0 
Al       0.00000000       0.00000000       0.00000001        1 
2
Lattice="2.9581847507254047 -1.8567332120004902e-17 6.754813228615596e-18 -1.85673321200049e-17 2.9581847507254033 -1.4534274854536683e-17 9.72214849720239e-18 -2.091906521357967e-17 3.6114020479868576" Properties=species:S:1:pos:R:3:tags:I:1 spacegroup="P 1" stress="-0.009143502385074723 -1.1266693122394878e-19 2.6629626415914308e-20 -1.1266693122394878e-19 -0.009143502385074984 -1.454620493379305e-18 2.6629626415914308e-20 -1.454620493379305e-18 0.0013917517131239532" unit_cell=conventional pbc="T T T" n_minim_iter=5
Ti       1.47909238       1.47909238       1.80570102        0 
Al       0.00000000       0.00000000       0.00000001        1 
