2
Lattice="2.9581847507254047 -1.8567332120004902e-17 6.754813228615596e-18 -1.85673321200049e-17 2.9581847507254033 -1.4534274854536683e-17 9.72214849720239e-18 -2.091906521357967e-17 3.6114020479868576" Properties=species:S:1:pos:R:3:tags:I:1 spacegroup="P 1" energy=-1704.1602466 unit_cell=conventional pbc="T T T" n_minim_iter=0
Ti       1.47909238       1.47909238       1.80570102        0 
Al       0.00000000       0.00000000       0.00000001        1 
