2
Lattice="3.121556855531852 -1.9592752904944627e-17 7.127862293405333e-18 -1.9592752904944624e-17 3.1215568555318502 -1.5336961392028574e-17 1.025907502379587e-17 -2.2074365508359366e-17 3.8108494806521938" Properties=species:S:1:pos:R:3:tags:I:1 spacegroup="P 1" energy=-1703.73759793 unit_cell=conventional pbc="T T T" n_minim_iter=0
Ti       1.56077843       1.56077843       1.90542474        0 
Al       0.00000000       0.00000000       0.00000001        1 
