2
Lattice="3.004362370988656 -7.147143340877116e-18 -4.2640443041200115e-17 -7.147143340877137e-18 3.004362370988651 -1.4118131965258245e-16 -4.5233260123827683e-17 -1.6796389300547486e-16 3.0635844266194736" Properties=species:S:1:pos:R:3:tags:I:1 spacegroup="P 1" energy=-1703.91598151 unit_cell=conventional pbc="T T T" n_minim_iter=0
Ti       1.50218119       1.50218119       1.53179221        0 
Al       0.00000000       0.00000000       0.00000000        1 
