2
Lattice="3.0766361227913714 -1.931080359002711e-17 7.025288862290154e-18 -1.9310803590027106e-17 3.07663612279137 -1.5116255002355914e-17 1.0111441907169535e-17 -2.1756704572067453e-17 3.7560094892769897" Properties=species:S:1:pos:R:3:tags:I:1 spacegroup="P 1" energy=-1703.92988149 unit_cell=conventional pbc="T T T" n_minim_iter=0
Ti       1.53831806       1.53831806       1.87800474        0 
Al       0.00000000       0.00000000       0.00000001        1 
