2
Lattice="2.8538866331518493 -6.789173317677153e-18 -4.05047645390754e-17 -6.789173317677173e-18 2.853886633151845 -1.3411014759669443e-16 -4.29677184376371e-17 -1.5955129571894178e-16 2.910142507804196" Properties=species:S:1:pos:R:3:tags:I:1 spacegroup="P 1" energy=-1702.59249907 unit_cell=conventional pbc="T T T" n_minim_iter=0
Ti       1.42694332       1.42694332       1.45507125        0 
Al       0.00000000       0.00000000       0.00000000        1 
