2
Lattice="3.032707086194524 -7.214573203695566e-18 -4.304273513017243e-17 -7.214573203695587e-18 3.0327070861945185 -1.4251329755797213e-16 -4.566001419598074e-17 -1.6954855161992235e-16 3.092487873460703" Properties=species:S:1:pos:R:3:tags:I:1 spacegroup="P 1" energy=-1704.03603114 unit_cell=conventional pbc="T T T" n_minim_iter=0
Ti       1.51635354       1.51635354       1.54624394        0 
Al       0.00000000       0.00000000       0.00000000        1 
