2
Lattice="3.0066882034225566 -1.8871768722544394e-17 6.86556755652967e-18 -1.887176872254439e-17 3.0066882034225553 -1.477258401109682e-17 9.88155631296951e-18 -2.1262061671054713e-17 3.670615884567543" Properties=species:S:1:pos:R:3:tags:I:1 spacegroup="P 1" energy=-1704.12340363 unit_cell=conventional pbc="T T T" n_minim_iter=0
Ti       1.50334410       1.50334410       1.83530794        0 
Al       0.00000000       0.00000000       0.00000001        1 
