2
Lattice="3.0536752960200855 -1.916668774455538e-17 6.972859379521506e-18 -1.9166687744555377e-17 3.053675296020084 -1.5003442924915705e-17 1.003598057317603e-17 -2.1594335053913302e-17 3.727978523055235" Properties=species:S:1:pos:R:3:tags:I:1 spacegroup="P 1" energy=-1704.00949858 unit_cell=conventional pbc="T T T" n_minim_iter=0
Ti       1.52683765       1.52683765       1.86398926        0 
Al       0.00000000       0.00000000       0.00000001        1 
