2
Lattice="3.087859262563756 -7.345775922075547e-18 -4.3825501303048096e-17 -7.345775922075569e-18 3.0878592625637507 -1.4510501456145658e-16 -4.649037765818978e-17 -1.726319260957025e-16 3.1487272107159323" Properties=species:S:1:pos:R:3:tags:I:1 spacegroup="P 1" stress="-0.045695959445539655 -8.357937094898834e-19 -1.3245541101929116e-18 -8.357937094898834e-19 -0.0456959594455407 -2.525001611148981e-17 -1.3245541101929116e-18 -2.525001611148981e-17 -0.03448172121228089" unit_cell=conventional pbc="T T T" n_minim_iter=0
Ti       1.54392963       1.54392963       1.57436361        0 
Al       0.00000000       0.00000000       0.00000000        1 
