2
Lattice="2.915946994621523 -6.93681006865418e-18 -4.1385577497564516e-17 -6.936810068654201e-18 2.915946994621518 -1.3702649477738473e-16 -4.3902090569588926e-17 -1.630208838133843e-16 2.9734262044530464" Properties=species:S:1:pos:R:3:tags:I:1 spacegroup="P 1" energy=-1703.28215589 unit_cell=conventional pbc="T T T" n_minim_iter=0
Ti       1.45797350       1.45797350       1.48671310        0 
Al       0.00000000       0.00000000       0.00000000        1 
