2
Lattice="2.9826336673077245 -1.872078810481008e-17 6.8106406630295816e-18 -1.8720788104810078e-17 2.982633667307723 -1.465439827597476e-17 9.802500475742857e-18 -2.1091957890503078e-17 3.6412496994544674" Properties=species:S:1:pos:R:3:tags:I:1 spacegroup="P 1" energy=-1704.15278611 unit_cell=conventional pbc="T T T" n_minim_iter=0
Ti       1.49131683       1.49131683       1.82062485        0 
Al       0.00000000       0.00000000       0.00000001        1 
