2
Lattice="2.946010423169374 -7.008328616225058e-18 -4.1812263014929715e-17 -7.00832861622508e-18 2.946010423169369 -1.3843923864498617e-16 -4.43547213497007e-17 -1.647016299659622e-16 3.0040822439505974" Properties=species:S:1:pos:R:3:tags:I:1 spacegroup="P 1" energy=-1703.54401423 unit_cell=conventional pbc="T T T" n_minim_iter=0
Ti       1.47300521       1.47300521       1.50204112        0 
Al       0.00000000       0.00000000       0.00000000        1 
