2
Lattice="3.0303638884800113 -1.9020371445049338e-17 6.919629369465261e-18 -1.9020371445049335e-17 3.03036388848001 -1.4888908359638645e-17 9.959367046678798e-18 -2.1429486372832254e-17 3.699519561892976" Properties=species:S:1:pos:R:3:tags:I:1 spacegroup="P 1" energy=-1704.07480523 unit_cell=conventional pbc="T T T" n_minim_iter=0
Ti       1.51518194       1.51518194       1.84975978        0 
Al       0.00000000       0.00000000       0.00000001        1 
