2
Lattice="3.165220648474714 -1.986681291589913e-17 7.227565588174076e-18 -1.9866812915899127e-17 3.1652206484747123 -1.55514921334461e-17 1.040257717620116e-17 -2.238313788365472e-17 3.8641549786330276" Properties=species:S:1:pos:R:3:tags:I:1 spacegroup="P 1" energy=-1703.50929052 unit_cell=conventional pbc="T T T" n_minim_iter=0
Ti       1.58261032       1.58261032       1.93207749        0 
Al       0.00000000       0.00000000       0.00000001        1 
