2
Lattice="2.992581973319781 -1.941671189157442e-17 8.939604929689558e-18 -1.941671189157441e-17 2.992581973319781 -6.7867628130899876e-18 1.2892355495911363e-17 -1.254302113524565e-17 3.4406376120879854" Properties=species:S:1:pos:R:3:tags:I:1 spacegroup="P 1" stress="-0.034326958676098564 -4.64176954781043e-19 -9.896340920770913e-20 -4.64176954781043e-19 -0.03432695867609855 1.0344906266413052e-18 -9.896340920770913e-20 1.0344906266413052e-18 -0.020297517050621446" unit_cell=conventional pbc="T T T" n_minim_iter=0
Ti       1.49629099       1.49629099       1.72031881        0 
Al       0.00000000       0.00000000       0.00000000        1 
