2
Lattice="3.143540374583678 -1.9730734584182754e-17 7.178060160616427e-18 -1.973073458418275e-17 3.1435403745836763 -1.544497172102876e-17 1.0331324411417966e-17 -2.2229823908500316e-17 3.837687333056867" Properties=species:S:1:pos:R:3:tags:I:1 spacegroup="P 1" energy=-1703.62743558 unit_cell=conventional pbc="T T T" n_minim_iter=0
Ti       1.57177019       1.57177019       1.91884367        0 
Al       0.00000000       0.00000000       0.00000001        1 
