2
Lattice="3.09925925968668 -1.9452799892397516e-17 7.076947253246209e-18 -1.9452799892397513e-17 3.099259259686679 -1.522740792802345e-17 1.0185793414902375e-17 -2.191668608638384e-17 3.7836281979785236" Properties=species:S:1:pos:R:3:tags:I:1 spacegroup="P 1" energy=-1703.83876843 unit_cell=conventional pbc="T T T" n_minim_iter=0
Ti       1.54962963       1.54962963       1.89181410        0 
Al       0.00000000       0.00000000       0.00000001        1 
