54
Lattice="8.576358690488489 -2.7275032158222026e-15 1.461382380437653e-40 -4.288179345244242 7.427344497930469 7.408865315000595e-25 6.8455133841569655e-40 1.358537297960076e-24 13.58443831129857" Properties=species:S:1:pos:R:3:force:R:3 virial="3.8627924881141014 -0.9334141185921893 -0.001388036617839969 -0.9334141185921893 2.8003449732697154 0.0014258430626838592 -0.001388036617839969 0.0014258430626838592 2.6169729139354634" energy=-86057.4862103 pbc="T T T"
Ti       0.00533450      -0.00000000       0.00844952      -0.02865963      -0.00362000      -0.05876944 
Ti       2.85878337      -0.00000000       0.00000000       0.01374037      -0.00724000       0.00181056 
Ti       5.71757532      -0.00000000       0.00000000       0.01465037      -0.00068000       0.00296056 
Ti      -1.42939169       2.47577902       0.00000000       0.00946037      -0.00875000       0.00182056 
Ti       1.42939169       2.47577902       0.00000000       0.00805037       0.00292000       0.00224056 
Ti       4.28818363       2.47577902       0.00000000       0.00741037      -0.00310000       0.00085056 
Ti      -2.85878766       4.95156547       0.00000000       0.00951037      -0.00352000       0.00145056 
Ti      -0.00000429       4.95156547       0.00000000       0.00643037      -0.00440000       0.00197056 
Ti       2.85878766       4.95156547       0.00000000       0.00901037      -0.00354000       0.00205056 
Ti       0.00000000       0.00000000       4.52814158       0.00413037      -0.00299000       0.00755056 
Ti       2.85878337      -0.00000000       4.52814158       0.00720037      -0.00305000       0.00032056 
Ti       5.71757532      -0.00000000       4.52814158       0.00686037      -0.00377000       0.00037056 
Ti      -1.42939169       2.47577902       4.52814158       0.00632037      -0.00358000      -0.00001944 
Ti       1.42939169       2.47577902       4.52814158       0.00626037      -0.00302000       0.00063056 
Ti       4.28818363       2.47577902       4.52814158       0.00585037      -0.00354000       0.00034056 
Ti      -2.85878766       4.95156547       4.52814158       0.00652037      -0.00483000      -0.00025944 
Ti      -0.00000429       4.95156547       4.52814158       0.00603037      -0.00381000      -0.00051944 
Ti       2.85878766       4.95156547       4.52814158       0.00574037      -0.00323000       0.00010056 
Ti       0.00000000       0.00000000       9.05629674       0.00444037      -0.00345000       0.00674056 
Ti       2.85878337      -0.00000000       9.05629674       0.00613037      -0.00322000      -0.00054944 
Ti       5.71757532      -0.00000000       9.05629674       0.00805037      -0.00381000      -0.00104944 
Ti      -1.42939169       2.47577902       9.05629674       0.00672037      -0.00434000      -0.00017944 
Ti       1.42939169       2.47577902       9.05629674       0.00561037      -0.00397000      -0.00064944 
Ti       4.28818363       2.47577902       9.05629674       0.00584037      -0.00346000      -0.00061944 
Ti      -2.85878766       4.95156547       9.05629674       0.00573037      -0.00373000       0.00029056 
Ti      -0.00000429       4.95156547       9.05629674       0.00609037      -0.00382000      -0.00049944 
Ti       2.85878766       4.95156547       9.05629674       0.00632037      -0.00221000      -0.00036944 
Ti       0.00000000       1.65051935       2.26407758      -0.00652963       0.01372000       0.00775056 
Ti       2.85878337       1.65051935       2.26407758      -0.00950963       0.00282000      -0.00265944 
Ti       5.71757532       1.65051935       2.26407758      -0.00567963       0.00294000      -0.00003944 
Ti      -1.42939597       4.12630580       2.26407758      -0.00577963       0.00352000      -0.00078944 
Ti       1.42938740       4.12630580       2.26407758      -0.00614963       0.00311000       0.00036056 
Ti       4.28817935       4.12630580       2.26407758      -0.00750963       0.00538000      -0.00175944 
Ti      -2.85878766       6.60208482       2.26407758       0.00592037      -0.00362000       0.01234056 
Ti      -0.00000429       6.60208482       2.26407758      -0.00657963       0.00320000       0.00038056 
Ti       2.85878766       6.60208482       2.26407758      -0.01098963       0.00076000       0.00299056 
Ti       0.00000000       1.65051935       6.79221916      -0.00644963       0.00341000       0.00025056 
Ti       2.85878337       1.65051935       6.79221916      -0.00616963       0.00358000       0.00094056 
Ti       5.71757532       1.65051935       6.79221916      -0.00557963       0.00329000       0.00107056 
Ti      -1.42939597       4.12630580       6.79221916      -0.00591963       0.00305000      -0.00103944 
Ti       1.42938740       4.12630580       6.79221916      -0.00615963       0.00339000      -0.00098944 
Ti       4.28817935       4.12630580       6.79221916      -0.00628963       0.00357000       0.00111056 
Ti      -2.85878766       6.60208482       6.79221916      -0.00651963       0.00385000       0.00056056 
Ti      -0.00000429       6.60208482       6.79221916      -0.00553963       0.00379000      -0.00101944 
Ti       2.85878766       6.60208482       6.79221916      -0.00603963       0.00401000       0.00029056 
Ti       0.00000000       1.65051935      11.32036073      -0.00621963      -0.00573000       0.00652056 
Ti       2.85878337       1.65051935      11.32036073      -0.00653963       0.00454000      -0.00091944 
Ti       5.71757532       1.65051935      11.32036073      -0.00835963       0.00539000      -0.00372944 
Ti      -1.42939597       4.12630580      11.32036073      -0.00557963       0.00394000       0.00045056 
Ti       1.42938740       4.12630580      11.32036073      -0.00646963       0.00292000      -0.00045944 
Ti       4.28817935       4.12630580      11.32036073      -0.00709963       0.00211000      -0.00178944 
Ti      -2.85878766       6.60208482      11.32036073      -0.01079963       0.00598000       0.00210056 
Ti      -0.00000429       6.60208482      11.32036073      -0.00734963       0.00252000      -0.00073944 
Ti       2.85878766       6.60208482      11.32036073       0.00644037       0.01032000       0.01080056 
