54
Lattice="8.576358690488489 -2.7275032158222026e-15 1.461382380437653e-40 -4.288179345244242 7.427344497930469 7.408865315000595e-25 6.8455133841569655e-40 1.358537297960076e-24 13.58443831129857" Properties=species:S:1:pos:R:3:force:R:3 virial="3.879351710955726 -0.9356014914724429 0.0006481104830381178 -0.9356014914724429 2.814830242565617 0.001458248586835765 0.0006481104830381178 0.001458248586835765 2.5655885544719252" energy=-86057.4520977 pbc="T T T"
Ti       0.00533450      -0.00000000       0.00844952      -0.02984981      -0.00334000      -0.05923037 
Ti       2.85878337      -0.00000000       0.00000000       0.01457019      -0.00562000       0.00037963 
Ti       5.71757532      -0.00000000       0.00000000       0.01483019       0.00027000       0.00083963 
Ti      -1.42939169       2.47577902       0.00000000       0.00855019      -0.01131000       0.00018963 
Ti       1.42939169       2.47577902       0.00000000       0.00946019       0.00202000       0.00141963 
Ti       4.28818363       2.47577902       0.00000000       0.00700019      -0.00434000      -0.00064037 
Ti      -2.85878766       4.95156547       0.00000000       0.00777019      -0.00350000      -0.00125037 
Ti      -0.00000429       4.95156547       0.00000000       0.00792019      -0.00311000      -0.00107037 
Ti       2.85878766       4.95156547       0.00000000       0.00914019      -0.00294000       0.00132963 
Ti       0.00000000       0.00000000       4.52814158       0.00400019      -0.00354000       0.00512963 
Ti       2.85878337      -0.00000000       4.52814158       0.00742019      -0.00270000      -0.00232037 
Ti       5.71757532      -0.00000000       4.52814158       0.00661019      -0.00345000      -0.00336037 
Ti      -1.42939169       2.47577902       4.52814158       0.00542019      -0.00377000      -0.00193037 
Ti       1.42939169       2.47577902       4.52814158       0.00697019      -0.00283000      -0.00244037 
Ti       4.28818363       2.47577902       4.52814158       0.00578019      -0.00352000      -0.00300037 
Ti      -2.85878766       4.95156547       4.52814158       0.00574019      -0.00494000      -0.00074037 
Ti      -0.00000429       4.95156547       4.52814158       0.00634019      -0.00345000      -0.00164037 
Ti       2.85878766       4.95156547       4.52814158       0.00616019      -0.00341000      -0.00250037 
Ti       0.00000000       0.00000000       9.05629674       0.00604019      -0.00400000       0.00994963 
Ti       2.85878337      -0.00000000       9.05629674       0.00655019      -0.00325000       0.00315963 
Ti       5.71757532      -0.00000000       9.05629674       0.00602019      -0.00255000       0.00436963 
Ti      -1.42939169       2.47577902       9.05629674       0.00498019      -0.00298000       0.00323963 
Ti       1.42939169       2.47577902       9.05629674       0.00726019      -0.00480000       0.00349963 
Ti       4.28818363       2.47577902       9.05629674       0.00619019      -0.00328000       0.00387963 
Ti      -2.85878766       4.95156547       9.05629674       0.00613019      -0.00442000       0.00351963 
Ti      -0.00000429       4.95156547       9.05629674       0.00382019      -0.00322000       0.00357963 
Ti       2.85878766       4.95156547       9.05629674       0.00827019      -0.00353000       0.00362963 
Ti       0.00000000       1.65051935       2.26407758      -0.00580981       0.01268000       0.00345963 
Ti       2.85878337       1.65051935       2.26407758      -0.00885981       0.00335000      -0.00595037 
Ti       5.71757532       1.65051935       2.26407758      -0.00676981       0.00188000      -0.00381037 
Ti      -1.42939597       4.12630580       2.26407758      -0.00636981       0.00277000      -0.00331037 
Ti       1.42938740       4.12630580       2.26407758      -0.00385981       0.00245000      -0.00276037 
Ti       4.28817935       4.12630580       2.26407758      -0.00893981       0.00459000      -0.00488037 
Ti      -2.85878766       6.60208482       2.26407758       0.00488019      -0.00229000       0.00909963 
Ti      -0.00000429       6.60208482       2.26407758      -0.00524981       0.00551000      -0.00278037 
Ti       2.85878766       6.60208482       2.26407758      -0.01122981       0.00103000      -0.00134037 
Ti       0.00000000       1.65051935       6.79221916      -0.00641981       0.00338000       0.00167963 
Ti       2.85878337       1.65051935       6.79221916      -0.00548981       0.00380000       0.00319963 
Ti       5.71757532       1.65051935       6.79221916      -0.00622981       0.00430000       0.00348963 
Ti      -1.42939597       4.12630580       6.79221916      -0.00711981       0.00389000       0.00100963 
Ti       1.42938740       4.12630580       6.79221916      -0.00612981       0.00339000      -0.00002037 
Ti       4.28817935       4.12630580       6.79221916      -0.00529981       0.00361000       0.00308963 
Ti      -2.85878766       6.60208482       6.79221916      -0.00626981       0.00254000       0.00272963 
Ti      -0.00000429       6.60208482       6.79221916      -0.00664981       0.00345000       0.00083963 
Ti       2.85878766       6.60208482       6.79221916      -0.00533981       0.00359000       0.00120963 
Ti       0.00000000       1.65051935      11.32036073      -0.00715981      -0.00574000       0.00924963 
Ti       2.85878337       1.65051935      11.32036073      -0.00418981       0.00423000       0.00003963 
Ti       5.71757532       1.65051935      11.32036073      -0.00997981       0.00551000      -0.00231037 
Ti      -1.42939597       4.12630580      11.32036073      -0.00672981       0.00391000       0.00084963 
Ti       1.42938740       4.12630580      11.32036073      -0.00589981       0.00365000       0.00172963 
Ti       4.28817935       4.12630580      11.32036073      -0.00647981       0.00052000      -0.00097037 
Ti      -2.85878766       6.60208482      11.32036073      -0.00961981       0.00525000       0.00324963 
Ti      -0.00000429       6.60208482      11.32036073      -0.00726981       0.00387000       0.00072963 
Ti       2.85878766       6.60208482      11.32036073       0.00539019       0.01039000       0.01448963 
