54
Lattice="8.576358690488489 -2.7275032158222026e-15 1.461382380437653e-40 -4.288179345244242 7.427344497930469 7.408865315000595e-25 6.8455133841569655e-40 1.358537297960076e-24 13.58443831129857" Properties=species:S:1:pos:R:3:force:R:3 virial="3.85851495892605 -0.9334843305611851 -0.0021063590698738826 -0.9334843305611851 2.7940420988221697 0.000961363883173208 -0.0021063590698738826 0.000961363883173208 2.542818272834519" energy=-86057.3204367 pbc="T T T"
Ti       0.00533450      -0.00000000       0.00844952      -0.02986981      -0.00317963      -0.05945019 
Ti       2.85878337      -0.00000000       0.00000000       0.01444019      -0.00698963       0.00180981 
Ti       5.71757532      -0.00000000       0.00000000       0.01485019      -0.00055963       0.00154981 
Ti      -1.42939169       2.47577902       0.00000000       0.00938019      -0.00990963       0.00160981 
Ti       1.42939169       2.47577902       0.00000000       0.00804019       0.00321037       0.00252981 
Ti       4.28818363       2.47577902       0.00000000       0.00747019      -0.00345963       0.00132981 
Ti      -2.85878766       4.95156547       0.00000000       0.00914019      -0.00364963       0.00159981 
Ti      -0.00000429       4.95156547       0.00000000       0.00765019      -0.00406963       0.00166981 
Ti       2.85878766       4.95156547       0.00000000       0.00821019      -0.00321963       0.00219981 
Ti       0.00000000       0.00000000       4.52814158       0.00509019      -0.00286963       0.00783981 
Ti       2.85878337      -0.00000000       4.52814158       0.00717019      -0.00247963       0.00072981 
Ti       5.71757532      -0.00000000       4.52814158       0.00596019      -0.00323963       0.00063981 
Ti      -1.42939169       2.47577902       4.52814158       0.00609019      -0.00297963       0.00011981 
Ti       1.42939169       2.47577902       4.52814158       0.00693019      -0.00313963      -0.00019019 
Ti       4.28818363       2.47577902       4.52814158       0.00530019      -0.00343963       0.00096981 
Ti      -2.85878766       4.95156547       4.52814158       0.00650019      -0.00500963       0.00088981 
Ti      -0.00000429       4.95156547       4.52814158       0.00569019      -0.00415963      -0.00049019 
Ti       2.85878766       4.95156547       4.52814158       0.00609019      -0.00446963       0.00048981 
Ti       0.00000000       0.00000000       9.05629674       0.00413019      -0.00417963       0.00753981 
Ti       2.85878337      -0.00000000       9.05629674       0.00652019      -0.00342963      -0.00040019 
Ti       5.71757532      -0.00000000       9.05629674       0.00779019      -0.00322963      -0.00026019 
Ti      -1.42939169       2.47577902       9.05629674       0.00541019      -0.00389963       0.00008981 
Ti       1.42939169       2.47577902       9.05629674       0.00606019      -0.00372963       0.00035981 
Ti       4.28818363       2.47577902       9.05629674       0.00671019      -0.00294963      -0.00106019 
Ti      -2.85878766       4.95156547       9.05629674       0.00540019      -0.00446963      -0.00062019 
Ti      -0.00000429       4.95156547       9.05629674       0.00544019      -0.00364963      -0.00022019 
Ti       2.85878766       4.95156547       9.05629674       0.00729019      -0.00226963      -0.00009019 
Ti       0.00000000       1.65051935       2.26407758      -0.00640981       0.01411037       0.00671981 
Ti       2.85878337       1.65051935       2.26407758      -0.00933981       0.00302037      -0.00277019 
Ti       5.71757532       1.65051935       2.26407758      -0.00583981       0.00323037      -0.00132019 
Ti      -1.42939597       4.12630580       2.26407758      -0.00571981       0.00315037      -0.00137019 
Ti       1.42938740       4.12630580       2.26407758      -0.00586981       0.00254037      -0.00090019 
Ti       4.28817935       4.12630580       2.26407758      -0.00759981       0.00490037      -0.00255019 
Ti      -2.85878766       6.60208482       2.26407758       0.00617019      -0.00347963       0.01173981 
Ti      -0.00000429       6.60208482       2.26407758      -0.00659981       0.00361037      -0.00095019 
Ti       2.85878766       6.60208482       2.26407758      -0.01115981       0.00089037       0.00080981 
Ti       0.00000000       1.65051935       6.79221916      -0.00681981       0.00297037       0.00004981 
Ti       2.85878337       1.65051935       6.79221916      -0.00517981       0.00376037       0.00039981 
Ti       5.71757532       1.65051935       6.79221916      -0.00633981       0.00415037       0.00175981 
Ti      -1.42939597       4.12630580       6.79221916      -0.00728981       0.00331037      -0.00042019 
Ti       1.42938740       4.12630580       6.79221916      -0.00534981       0.00351037      -0.00140019 
Ti       4.28817935       4.12630580       6.79221916      -0.00543981       0.00323037       0.00172981 
Ti      -2.85878766       6.60208482       6.79221916      -0.00654981       0.00283037       0.00087981 
Ti      -0.00000429       6.60208482       6.79221916      -0.00626981       0.00427037      -0.00102019 
Ti       2.85878766       6.60208482       6.79221916      -0.00534981       0.00375037       0.00086981 
Ti       0.00000000       1.65051935      11.32036073      -0.00683981      -0.00616963       0.00742981 
Ti       2.85878337       1.65051935      11.32036073      -0.00633981       0.00402037      -0.00082019 
Ti       5.71757532       1.65051935      11.32036073      -0.00805981       0.00461037      -0.00326019 
Ti      -1.42939597       4.12630580      11.32036073      -0.00559981       0.00370037       0.00017981 
Ti       1.42938740       4.12630580      11.32036073      -0.00668981       0.00339037       0.00056981 
Ti       4.28817935       4.12630580      11.32036073      -0.00690981       0.00221037      -0.00223019 
Ti      -2.85878766       6.60208482      11.32036073      -0.01106981       0.00607037       0.00202981 
Ti      -0.00000429       6.60208482      11.32036073      -0.00668981       0.00293037       0.00037981 
Ti       2.85878766       6.60208482      11.32036073       0.00627019       0.01090037       0.01227981 
