2
Lattice="3.32 0.0 0.0 0.0 3.32 0.0 0.0 0.0 3.32" Properties=species:S:1:pos:R:3 energy=-3186.93072 pbc="T T T" n_minim_iter=1
Ti       0.00000000       0.00000000       0.00000000 
Ti       1.66000000       1.66000000       1.66000000 
2
Lattice="3.12443260051119 -8.980111791801622e-14 -4.1985640495925275e-15 -8.98011179180162e-14 3.1244326005123764 -2.2291298508371735e-15 -4.198564049592527e-15 -2.2291298508371735e-15 3.124432600511858" Properties=species:S:1:pos:R:3 stress="-0.03966276912785644 -3.558275520785126e-12 2.838928985144174e-12 -3.558275520785126e-12 -0.03966276911663547 2.5081236811089184e-12 2.838928985144174e-12 2.5081236811089184e-12 -0.039662769130995756" pbc="T T T" n_minim_iter=2
Ti       0.00000000       0.00000000       0.00000000 
Ti       1.56221630       1.56221630       1.56221630 
2
Lattice="3.175499388218044 4.527335501159073e-12 -3.6891672765473905e-12 4.527335501159075e-12 3.1754993882046842 -3.2577838332287706e-12 -3.689167276547391e-12 -3.2577838332287706e-12 3.1754993882227973" Properties=species:S:1:pos:R:3 stress="0.002407160749306076 1.1078715396154029e-13 -1.8055449114519505e-12 1.1078715396154029e-13 0.0024071607482866364 3.786113171998512e-12 -1.8055449114519505e-12 3.786113171998512e-12 0.002407160746741083" pbc="T T T" n_minim_iter=3
Ti      -0.00000000       0.00000000      -0.00000000 
Ti       1.58774969       1.58774969       1.58774969 
