2
Lattice="3.374471636324043 4.8110118658713406e-12 -3.92032521957116e-12 4.811011865871343e-12 3.374471636309846 -3.4619119069251266e-12 -3.920325219571161e-12 -3.4619119069251266e-12 3.374471636329094" Properties=species:S:1:pos:R:3 energy=-3186.74640294 pbc="T T T" n_minim_iter=0
Ti      -0.00000000       0.00000000      -0.00000000 
Ti       1.68723582       1.68723582       1.68723582 
