2
Lattice="3.420703020075989 4.876924328554996e-12 -3.974034978962074e-12 4.876924328554999e-12 3.4207030200615973 -3.509341251466554e-12 -3.974034978962075e-12 -3.509341251466554e-12 3.4207030200811093" Properties=species:S:1:pos:R:3 energy=-3186.56220624 pbc="T T T" n_minim_iter=0
Ti      -0.00000000       0.00000000      -0.00000000 
Ti       1.71035151       1.71035151       1.71035151 
