2
Lattice="2.9782650809754 4.246136932978206e-12 -3.4600284032124565e-12 4.246136932978207e-12 2.9782650809628706 -3.05543873441465e-12 -3.4600284032124573e-12 -3.05543873441465e-12 2.978265080979859" Properties=species:S:1:pos:R:3 energy=-3186.81661911 pbc="T T T" n_minim_iter=0
Ti      -0.00000000       0.00000000      -0.00000000 
Ti       1.48913254       1.48913254       1.48913254 
