2
Lattice="2.885132665428434 4.113357284908084e-12 -3.351830914308362e-12 4.113357284908086e-12 2.8851326654162963 -2.9598930451778116e-12 -3.3518309143083626e-12 -2.9598930451778116e-12 2.8851326654327534" Properties=species:S:1:pos:R:3 energy=-3186.78159095 pbc="T T T" n_minim_iter=0
Ti      -0.00000000       0.00000000      -0.00000000 
Ti       1.44256633       1.44256633       1.44256633 
