2
Lattice="3.175499388218044 4.527335501159073e-12 -3.6891672765473905e-12 4.527335501159075e-12 3.1754993882046842 -3.2577838332287706e-12 -3.689167276547391e-12 -3.2577838332287706e-12 3.1754993882227973" Properties=species:S:1:pos:R:3 energy=-3187.16705593 pbc="T T T" n_minim_iter=0
Ti      -0.00000000       0.00000000      -0.00000000 
Ti       1.58774969       1.58774969       1.58774969 
