 +-------------------------------------------------+
 |                                                 |
 |      CCC   AA    SSS  TTTTT  EEEEE  PPPP        |
 |     C     A  A  S       T    E      P   P       |
 |     C     AAAA   SS     T    EEE    PPPP        |
 |     C     A  A     S    T    E      P           |
 |      CCC  A  A  SSS     T    EEEEE  P           |
 |                                                 |
 +-------------------------------------------------+
 |                                                 |
 | Welcome to Academic Release CASTEP version 17.21|          
 | Ab Initio Total Energy Program                  |
 |                                                 |
 | Authors:                                        |
 | M. Segall, M. Probert, C. Pickard, P. Hasnip,   |
 | S. Clark, K. Refson, J. R. Yates, M. Payne      |
 |                                                 |
 | Contributors:                                   |
 | P. Lindan, P. Haynes, J. White, V. Milman,      |
 | N. Govind, M. Gibson, P. Tulip, V. Cocula,      |
 | B. Montanari, D. Quigley, M. Glover,            |
 | L. Bernasconi, A. Perlov, M. Plummer,           |
 | E. McNellis, J. Meyer, J. Gale, D. Jochym       |
 | J. Aarons, B. Walker, R. Gillen, D. Jones       |
 | T. Green, I. J. Bush, C. J. Armstrong,          |
 | E. J. Higgins, E. L. Brown, M. S. McFly,        |
 | J. Wilkins, B-C. Shih, P. J. P. Byrne           |
 |                                                 |
 | Copyright (c) 2000 - 2017                       |
 |                                                 |
 |     Distributed under the terms of an           |
 |     Agreement between the United Kingdom        |
 |     Car-Parrinello (UKCP) Consortium,           |
 |     Daresbury Laboratory and Accelrys, Inc.     |
 |                                                 |
 | Please cite                                     |
 |                                                 |
 |     "First principles methods using CASTEP"     |
 |                                                 |
 |         Zeitschrift fuer Kristallographie       |
 |           220(5-6) pp. 567-570 (2005)           |
 |                                                 |
 | S. J. Clark, M. D. Segall, C. J. Pickard,       |
 | P. J. Hasnip, M. J. Probert, K. Refson,         |
 | M. C. Payne                                     |
 |                                                 |
 |       in all publications arising from          |
 |              your use of CASTEP                 |
 |                                                 |
 +-------------------------------------------------+


 Compiled for linux_x86_64_gfortran6.0-XT on Fri, 21 Jul 2017 10:20:05 +0100
 from code version 056e886bd5a1+ Castep172_branch Mon, 15 May 2017 14:45:35 +0100
 Compiler: GNU Fortran 6.3.0; Optimisation: fast
 MATHLIBS: Intel MKL(2017.0.0) (LAPACK version 3.6.0)
 FFT Lib : fftw3 version commercial-fftw-3.3.4-sse2-avx
 Fundamental constants values: CODATA 2010

 Run started: Wed, 11 Dec 2019 23:28:40 +0000

 Atomic calculation performed for Al: 1s2 2s2 2p6 3s2 3p1

 Converged in 55 iterations to an ae energy of -6578.725 eV

   ============================================================                
   | Pseudopotential Report - Date of generation 11-12-2019   |                
   ------------------------------------------------------------                
   | Element: Al Ionic charge:  3.00 Level of theory: LDA     |                
   | Atomic Solver: Koelling-Harmon                           |                
   |                                                          |                
   |               Reference Electronic Structure             |                
   |         Orbital         Occupation         Energy        |                
   |            3s              2.000           -0.288        |                
   |            3p              1.000           -0.102        |                
   |                                                          |                
   |                 Pseudopotential Definition               |                
   |        Beta     l      e      Rc     scheme   norm       |                
   |          1      0   -0.288   2.192     qc      0         |                
   |          2      0    0.250   2.192     qc      0         |                
   |          3      1   -0.102   2.192     qc      0         |                
   |          4      1    0.250   2.192     qc      0         |                
   |          5      2    0.000   2.000     qc      0         |                
   |          6      2    0.250   2.000     qc      0         |                
   |         loc     3    0.000   2.192     pn      0         |                
   |                                                          |                
   | Augmentation charge Rinner = 1.398                       |                
   | Partial core correction Rc = 1.398                       |                
   ------------------------------------------------------------                
   | "3|2.2|2.2|1.4|4|5|5|30:31:32U2U2"                       |                
   ------------------------------------------------------------                
   |      Author: Chris J. Pickard, Cambridge University      |                
   ============================================================                

 Atomic calculation performed for Ti: 1s2 2s2 2p6 3s2 3p6 3d2 4s2

 Converged in 78 iterations to an ae energy of -23176.516 eV

   ============================================================                
   | Pseudopotential Report - Date of generation 11-12-2019   |                
   ------------------------------------------------------------                
   | Element: Ti Ionic charge: 12.00 Level of theory: LDA     |                
   | Atomic Solver: Koelling-Harmon                           |                
   |                                                          |                
   |               Reference Electronic Structure             |                
   |         Orbital         Occupation         Energy        |                
   |            3s              2.000           -2.288        |                
   |            3p              6.000           -1.425        |                
   |            4s              2.000           -0.169        |                
   |            3d              2.000           -0.164        |                
   |                                                          |                
   |                 Pseudopotential Definition               |                
   |        Beta     l      e      Rc     scheme   norm       |                
   |          1      0   -2.288   1.793     qc      0         |                
   |          2      0   -0.169   1.793     qc      0         |                
   |          3      0    0.250   1.793     qc      0         |                
   |          4      1   -1.425   1.793     qc      0         |                
   |          5      1    0.250   1.793     qc      0         |                
   |          6      2   -0.164   1.793     qc      0         |                
   |          7      2    0.250   1.793     qc      0         |                
   |         loc     3    0.000   1.793     pn      0         |                
   |                                                          |                
   | Augmentation charge Rinner = 1.263                       |                
   | Partial core correction Rc = 1.263                       |                
   ------------------------------------------------------------                
   | "3|1.8|9|10|11|30U:40:31:32(qc=5.5)"                     |                
   ------------------------------------------------------------                
   |      Author: Chris J. Pickard, Cambridge University      |                
   ============================================================                

 Pseudo atomic calculation performed for Al 3s2 3p1

 Converged in 15 iterations to a total energy of -105.5951 eV


 Pseudo atomic calculation performed for Ti 3s2 3p6 3d2 4s2

 Converged in 31 iterations to a total energy of -1585.9719 eV

 Calculation parallelised over 48 processes.
 Data is distributed by G-vector(2-way) and k-point(24-way)

 ************************************ Title ************************************
 

 ***************************** General Parameters ******************************
  
 output verbosity                               : normal  (1)
 write checkpoint data to                       : castep.check
 type of calculation                            : single point energy
 stress calculation                             : on
 density difference calculation                 : off
 electron localisation func (ELF) calculation   : off
 Hirshfeld analysis                             : off
 unlimited duration calculation
 timing information                             : on
 memory usage estimate                          : on
 write final potential to formatted file        : off
 write final density to formatted file          : off
 write BibTeX reference list                    : on
 write OTFG pseudopotential files               : on
 write electrostatic potential file             : on
 write bands file                               : on
 checkpoint writing                             : off
  
 output         length unit                     : A
 output           mass unit                     : amu
 output           time unit                     : ps
 output         charge unit                     : e
 output           spin unit                     : hbar/2
 output         energy unit                     : eV
 output          force unit                     : eV/A
 output       velocity unit                     : A/ps
 output       pressure unit                     : GPa
 output     inv_length unit                     : 1/A
 output      frequency unit                     : cm-1
 output force constant unit                     : eV/A**2
 output         volume unit                     : A**3
 output   IR intensity unit                     : (D/A)**2/amu
 output         dipole unit                     : D
 output         efield unit                     : eV/A/e
 output        entropy unit                     : J/mol/K
  
 wavefunctions paging                           : none
 random number generator seed                   : randomised (232841357)
 data distribution                              : optimal for this architecture
 optimization strategy                          : balance speed and memory

 *********************** Exchange-Correlation Parameters ***********************
  
 using functional                               : Local Density Approximation
 relativistic treatment                         : Koelling-Harmon
 DFT+D: Semi-empirical dispersion correction    : off

 ************************* Pseudopotential Parameters **************************
  
 pseudopotential representation                 : reciprocal space
 <beta|phi> representation                      : reciprocal space
 spin-orbit coupling                            : off

 **************************** Basis Set Parameters *****************************
  
 plane wave basis set cut-off                   :   500.0000   eV
 size of standard grid                          :     1.7500
 size of   fine   gmax                          :    20.0476   1/A
 finite basis set correction                    : automatic
 number of sample energies                      :          3
           sample  spacing                      :     5.0000   eV

 **************************** Electronic Parameters ****************************
  
 number of  electrons                           :  405.0    
 net charge of system                           :  0.000    
 net spin   of system                           :  1.000    
 number of  up  spins                           :  203.0    
 number of down spins                           :  202.0    
 treating system as spin-polarized
 number of bands                                :        244

 ********************* Electronic Minimization Parameters **********************
  
 Method: Treating system as metallic with density mixing treatment of electrons,
         and number of  SD  steps               :          1
         and number of  CG  steps               :          4
  
 total energy / atom convergence tol.           : 0.1000E-04   eV
 eigen-energy convergence tolerance             : 0.1000E-05   eV
 max force / atom convergence tol.              : ignored
 convergence tolerance window                   :          3   cycles
 max. number of SCF cycles                      :        250
 number of fixed-spin iterations                :         10
 smearing scheme                                : Gaussian
 smearing width                                 : 0.1000       eV
 Fermi energy convergence tolerance             : 0.2721E-13   eV
 periodic dipole correction                     : NONE

 ************************** Density Mixing Parameters **************************
  
 density-mixing scheme                          : Pulay
 max. length of mixing history                  :         20
 charge density mixing amplitude                : 0.8000    
   spin density mixing amplitude                :  2.000    
 cut-off energy for mixing                      :  500.0       eV

 *********************** Population Analysis Parameters ************************
  
 Population analysis with cutoff                :  3.000       A

 *******************************************************************************
  

                           -------------------------------
                                      Unit Cell
                           -------------------------------
        Real Lattice(A)                      Reciprocal Lattice(1/A)
   8.2901050   0.0000000   0.0000000        0.7579138   0.0000000   0.0000000
   0.0000000   8.2901050   0.0000000        0.0000000   0.7579138   0.0000000
   0.0000000   0.0000000  11.9532130        0.0000000   0.0000000   0.5256482

                       Lattice parameters(A)       Cell Angles
                    a =    8.290105          alpha =   90.000000
                    b =    8.290105          beta  =   90.000000
                    c =   11.953213          gamma =   90.000000

                       Current cell volume =  821.494615       A**3
                                   density =    2.460041   AMU/A**3
                                           =    4.084994     g/cm^3

                           -------------------------------
                                     Cell Contents
                           -------------------------------
                         Total number of ions in cell =   54
                      Total number of species in cell =    2
                        Max number of any one species =   27

            xxxxxxxxxxxxxxxxxxxxxxxxxxxxxxxxxxxxxxxxxxxxxxxxxxxxxxxxxxxx
            x  Element    Atom        Fractional coordinates of atoms  x
            x            Number           u          v          w      x
            x----------------------------------------------------------x
            x  Al           1         0.000000   0.000000   0.000000   x 
            x  Al           2         0.333333   0.000000   0.000000   x 
            x  Al           3         0.666667   0.000000   0.000000   x 
            x  Al           4         0.000000   0.333333   0.000000   x 
            x  Al           5         0.333333   0.333333   0.000000   x 
            x  Al           6         0.666667   0.333333   0.000000   x 
            x  Al           7         0.000000   0.666667   0.000000   x 
            x  Al           8         0.333333   0.666667   0.000000   x 
            x  Al           9         0.666667   0.666667   0.000000   x 
            x  Al          10         0.000000   0.000000   0.333333   x 
            x  Al          11         0.333333   0.000000   0.333333   x 
            x  Al          12         0.666667   0.000000   0.333333   x 
            x  Al          13         0.000000   0.333333   0.333333   x 
            x  Al          14         0.333333   0.333333   0.333333   x 
            x  Al          15         0.666667   0.333333   0.333333   x 
            x  Al          16         0.000000   0.666667   0.333333   x 
            x  Al          17         0.333333   0.666667   0.333333   x 
            x  Al          18         0.666667   0.666667   0.333333   x 
            x  Al          19         0.000000   0.000000   0.666667   x 
            x  Al          20         0.333333   0.000000   0.666667   x 
            x  Al          21         0.666667   0.000000   0.666667   x 
            x  Al          22         0.000000   0.333333   0.666667   x 
            x  Al          23         0.333333   0.333333   0.666667   x 
            x  Al          24         0.666667   0.333333   0.666667   x 
            x  Al          25         0.000000   0.666667   0.666667   x 
            x  Al          26         0.333333   0.666667   0.666667   x 
            x  Al          27         0.666667   0.666667   0.666667   x 
            x  Ti           1         0.167354   0.166667   0.167354   x 
            x  Ti           2         0.500000   0.166667   0.166667   x 
            x  Ti           3         0.833333   0.166667   0.166667   x 
            x  Ti           4         0.166667   0.500000   0.166667   x 
            x  Ti           5         0.500000   0.500000   0.166667   x 
            x  Ti           6         0.833333   0.500000   0.166667   x 
            x  Ti           7         0.166667   0.833333   0.166667   x 
            x  Ti           8         0.500000   0.833333   0.166667   x 
            x  Ti           9         0.833333   0.833333   0.166667   x 
            x  Ti          10         0.166667   0.166667   0.500000   x 
            x  Ti          11         0.500000   0.166667   0.500000   x 
            x  Ti          12         0.833333   0.166667   0.500000   x 
            x  Ti          13         0.166667   0.500000   0.500000   x 
            x  Ti          14         0.500000   0.500000   0.500000   x 
            x  Ti          15         0.833333   0.500000   0.500000   x 
            x  Ti          16         0.166667   0.833333   0.500000   x 
            x  Ti          17         0.500000   0.833333   0.500000   x 
            x  Ti          18         0.833333   0.833333   0.500000   x 
            x  Ti          19         0.166667   0.166667   0.833333   x 
            x  Ti          20         0.500000   0.166667   0.833333   x 
            x  Ti          21         0.833333   0.166667   0.833333   x 
            x  Ti          22         0.166667   0.500000   0.833333   x 
            x  Ti          23         0.500000   0.500000   0.833333   x 
            x  Ti          24         0.833333   0.500000   0.833333   x 
            x  Ti          25         0.166667   0.833333   0.833333   x 
            x  Ti          26         0.500000   0.833333   0.833333   x 
            x  Ti          27         0.833333   0.833333   0.833333   x 
            xxxxxxxxxxxxxxxxxxxxxxxxxxxxxxxxxxxxxxxxxxxxxxxxxxxxxxxxxxxx


                         No user defined ionic velocities

                           -------------------------------
                                   Details of Species
                           -------------------------------

                               Mass of species in AMU
                                    Al   26.9815400
                                    Ti   47.8670000

                          Electric Quadrupole Moment (Barn)
                                    Al    0.1466000 Isotope 27
                                    Ti    0.3020000 Isotope 47

                          Files used for pseudopotentials:
                                    Al 3|2.2|2.2|1.4|4|5|5|30:31:32U2U2
                                    Ti 3|1.8|9|10|11|30U:40:31:32(qc=5.5)

                           -------------------------------
                              k-Points For BZ Sampling
                           -------------------------------
                       MP grid size for SCF calculation is  4  4  3
                            with an offset of   0.000  0.000  0.000
                       Number of kpoints used =            24

                           -------------------------------
                               Symmetry and Constraints
                           -------------------------------

                      Maximum deviation from symmetry =  0.00000         ANG

                      Number of symmetry operations   =           1
                      Number of ionic constraints     =           3
                      Point group of crystal =     1: C1, 1, 1
                      Space group of crystal =     6: Pm, P -2y

             Set iprint > 1 for details on symmetry rotations/translations

                         Centre of mass is constrained
             Set iprint > 1 for details of linear ionic constraints

                         Number of cell constraints= 0
                         Cell constraints are:  1 2 3 4 5 6

                         External pressure/stress (GPa)
                          0.00000   0.00000   0.00000
                                    0.00000   0.00000
                                              0.00000
  
+---------------- MEMORY AND SCRATCH DISK ESTIMATES PER PROCESS --------------+
|                                                     Memory          Disk    |
| Baseline code, static data and system overhead      172.0 MB         0.0 MB |
| BLAS internal memory storage                          0.0 MB         0.0 MB |
| Model and support data                              320.3 MB       325.4 MB |
| Electronic energy minimisation requirements         319.5 MB         0.0 MB |
| Force calculation requirements                       26.4 MB         0.0 MB |
| Stress calculation requirements                      26.4 MB         0.0 MB |
|                                               ----------------------------- |
| Approx. total storage required per process          811.8 MB       325.4 MB |
|                                                                             |
| Requirements will fluctuate during execution and may exceed these estimates |
+-----------------------------------------------------------------------------+
Calculating finite basis set correction with  3 cut-off energies.
Calculating total energy with cut-off of  490.000 eV.
------------------------------------------------------------------------ <-- SCF
SCF loop      Energy           Fermi           Energy gain       Timer   <-- SCF
                               energy          per atom          (sec)   <-- SCF
------------------------------------------------------------------------ <-- SCF
Initial  -3.82162363E+004  0.00000000E+000                        30.07  <-- SCF
      1  -4.47029148E+004  1.00086494E+001   1.20123677E+002     169.73  <-- SCF
      2  -4.59451998E+004  8.10568183E+000   2.30052772E+001     268.36  <-- SCF
      3  -4.60177927E+004  7.76621298E+000   1.34431425E+000     380.44  <-- SCF
      4  -4.60165557E+004  7.44867325E+000  -2.29087593E-002     482.96  <-- SCF
      5  -4.60164636E+004  7.74966322E+000  -1.70559638E-003     617.94  <-- SCF
      6  -4.60162586E+004  7.61427313E+000  -3.79608375E-003     755.74  <-- SCF
      7  -4.60159405E+004  7.59416051E+000  -5.89024864E-003     860.01  <-- SCF
      8  -4.60159752E+004  7.59948561E+000   6.42307170E-004     967.72  <-- SCF
      9  -4.60159368E+004  7.60125783E+000  -7.11110620E-004    1069.60  <-- SCF
     10  -4.60159388E+004  7.60117414E+000   3.65860690E-005    1164.98  <-- SCF
     11  -4.60159482E+004  7.60146287E+000   1.74625553E-004    1265.74  <-- SCF
     12  -4.60159400E+004  7.60134819E+000  -1.51478245E-004    1359.98  <-- SCF
     13  -4.60159415E+004  7.60090581E+000   2.66045146E-005    1451.62  <-- SCF
     14  -4.60159405E+004  7.60092307E+000  -1.68157039E-005    1537.41  <-- SCF
     15  -4.60159407E+004  7.60135890E+000   3.28669294E-006    1610.18  <-- SCF
     16  -4.60159406E+004  7.60138653E+000  -2.30109235E-006    1678.23  <-- SCF
------------------------------------------------------------------------ <-- SCF
 
Integrated Spin Density     =    0.714901E-02 hbar/2                        
Integrated |Spin Density|   =    0.175452E-01 hbar/2                        
 
Final energy, E             =  -46015.65472649     eV
Final free energy (E-TS)    =  -46015.94059719     eV
(energies not corrected for finite basis set)
 
NB est. 0K energy (E-0.5TS)      =  -46015.79766184     eV
 
Calculating total energy with cut-off of  495.000 eV.
------------------------------------------------------------------------ <-- SCF
SCF loop      Energy           Fermi           Energy gain       Timer   <-- SCF
                               energy          per atom          (sec)   <-- SCF
------------------------------------------------------------------------ <-- SCF
Initial  -4.60156547E+004  0.00000000E+000                      1701.26  <-- SCF
      1  -4.60159422E+004  7.60076900E+000   5.32522720E-003    1815.47  <-- SCF
      2  -4.60159423E+004  7.60076865E+000   5.13230155E-007    1885.28  <-- SCF
      3  -4.60159639E+004  7.60201849E+000   3.99976865E-004    1990.01  <-- SCF
      4  -4.60159412E+004  7.60154946E+000  -4.20263610E-004    2092.84  <-- SCF
      5  -4.60159414E+004  7.60141500E+000   3.61969248E-006    2181.73  <-- SCF
      6  -4.60159414E+004  7.60096672E+000   1.09253773E-007    2251.36  <-- SCF
------------------------------------------------------------------------ <-- SCF
 
Integrated Spin Density     =    0.419101E-02 hbar/2                        
Integrated |Spin Density|   =    0.634182E-02 hbar/2                        
 
Final energy, E             =  -46015.65549007     eV
Final free energy (E-TS)    =  -46015.94137300     eV
(energies not corrected for finite basis set)
 
NB est. 0K energy (E-0.5TS)      =  -46015.79843154     eV
 
Calculating total energy with cut-off of  500.000 eV.
------------------------------------------------------------------------ <-- SCF
SCF loop      Energy           Fermi           Energy gain       Timer   <-- SCF
                               energy          per atom          (sec)   <-- SCF
------------------------------------------------------------------------ <-- SCF
Initial  -4.60156554E+004  0.00000000E+000                      2274.52  <-- SCF
      1  -4.60159457E+004  7.60137782E+000   5.37655892E-003    2393.95  <-- SCF
      2  -4.60159457E+004  7.60137730E+000   7.01874950E-007    2466.18  <-- SCF
      3  -4.60160445E+004  7.60269167E+000   1.82879285E-003    2570.08  <-- SCF
      4  -4.60159411E+004  7.60106807E+000  -1.91407378E-003    2673.08  <-- SCF
      5  -4.60159425E+004  7.60108209E+000   2.58516826E-005    2769.45  <-- SCF
      6  -4.60159423E+004  7.60121942E+000  -4.39679553E-006    2844.13  <-- SCF
      7  -4.60159423E+004  7.60119285E+000  -1.19278106E-007    2914.04  <-- SCF
------------------------------------------------------------------------ <-- SCF
 
Integrated Spin Density     =    0.655698E-03 hbar/2                        
Integrated |Spin Density|   =    0.104618E-02 hbar/2                        
 
Final energy, E             =  -46015.65641820     eV
Final free energy (E-TS)    =  -46015.94228573     eV
(energies not corrected for finite basis set)
 
NB est. 0K energy (E-0.5TS)      =  -46015.79935197     eV
 
 For future reference: finite basis dEtot/dlog(Ecut) =      -0.084179eV
 Total energy corrected for finite basis set =  -46015.942284 eV

 ******************* Unconstrained Forces *******************
 *                                                          *
 *               Cartesian components (eV/A)                *
 * -------------------------------------------------------- *
 *                         x            y            z      *
 *                                                          *
 * Al              1      0.00844      0.00785      0.00975 *
 * Al              2     -0.00220      0.00290      0.00228 *
 * Al              3      0.00061     -0.00034     -0.00032 *
 * Al              4      0.00846     -0.00777      0.00971 *
 * Al              5     -0.00236     -0.00296      0.00224 *
 * Al              6      0.00075      0.00028     -0.00033 *
 * Al              7     -0.00029     -0.00007      0.00012 *
 * Al              8      0.00033      0.00006     -0.00056 *
 * Al              9     -0.00002      0.00006     -0.00069 *
 * Al             10     -0.00248     -0.00299      0.00288 *
 * Al             11      0.00897     -0.00831      0.01076 *
 * Al             12      0.00065      0.00020      0.00049 *
 * Al             13     -0.00241      0.00311      0.00288 *
 * Al             14      0.00877      0.00832      0.01074 *
 * Al             15      0.00077     -0.00023      0.00047 *
 * Al             16      0.00023     -0.00009      0.00003 *
 * Al             17     -0.00023      0.00001      0.00068 *
 * Al             18      0.00001      0.00006      0.00013 *
 * Al             19     -0.00013     -0.00022      0.00055 *
 * Al             20      0.00022     -0.00016      0.00057 *
 * Al             21     -0.00014      0.00002     -0.00058 *
 * Al             22     -0.00012      0.00021      0.00064 *
 * Al             23      0.00015      0.00014      0.00058 *
 * Al             24     -0.00012     -0.00002     -0.00060 *
 * Al             25      0.00005      0.00007     -0.00055 *
 * Al             26      0.00001      0.00006     -0.00057 *
 * Al             27      0.00016      0.00001      0.00145 *
 * Ti              1     -0.05370     -0.00002     -0.06349 *
 * Ti              2      0.01173      0.00023      0.00307 *
 * Ti              3      0.01350     -0.00001      0.00315 *
 * Ti              4      0.00253     -0.00125      0.00321 *
 * Ti              5     -0.00100      0.00130      0.00195 *
 * Ti              6     -0.00312     -0.00003      0.00215 *
 * Ti              7      0.00215      0.00120      0.00321 *
 * Ti              8     -0.00098     -0.00155      0.00203 *
 * Ti              9     -0.00273     -0.00000      0.00212 *
 * Ti             10      0.00053     -0.00052     -0.01221 *
 * Ti             11      0.00404      0.00034      0.00414 *
 * Ti             12     -0.00304     -0.00013      0.00029 *
 * Ti             13      0.00054      0.00376      0.00221 *
 * Ti             14     -0.00151     -0.00256     -0.00465 *
 * Ti             15      0.00103     -0.00072     -0.00261 *
 * Ti             16      0.00007     -0.00328      0.00227 *
 * Ti             17     -0.00174      0.00224     -0.00468 *
 * Ti             18      0.00186      0.00086     -0.00259 *
 * Ti             19      0.00045     -0.00054     -0.00845 *
 * Ti             20     -0.00105     -0.00001      0.00268 *
 * Ti             21      0.00211     -0.00007      0.00640 *
 * Ti             22      0.00039     -0.00155      0.00442 *
 * Ti             23      0.00129      0.00040      0.00059 *
 * Ti             24     -0.00156      0.00199     -0.00154 *
 * Ti             25      0.00030      0.00195      0.00446 *
 * Ti             26      0.00113     -0.00037      0.00063 *
 * Ti             27     -0.00130     -0.00188     -0.00148 *
 *                                                          *
 ************************************************************

 ******************** Constrained Forces ********************
 *                                                          *
 *               Cartesian components (eV/A)                *
 * -------------------------------------------------------- *
 *                         x            y            z      *
 *                                                          *
 * Al              1      0.00844      0.00785      0.00975 *
 * Al              2     -0.00220      0.00290      0.00228 *
 * Al              3      0.00061     -0.00034     -0.00032 *
 * Al              4      0.00846     -0.00777      0.00971 *
 * Al              5     -0.00236     -0.00296      0.00224 *
 * Al              6      0.00075      0.00028     -0.00033 *
 * Al              7     -0.00029     -0.00007      0.00012 *
 * Al              8      0.00033      0.00006     -0.00056 *
 * Al              9     -0.00002      0.00006     -0.00069 *
 * Al             10     -0.00248     -0.00299      0.00288 *
 * Al             11      0.00897     -0.00831      0.01076 *
 * Al             12      0.00065      0.00020      0.00049 *
 * Al             13     -0.00241      0.00311      0.00288 *
 * Al             14      0.00877      0.00832      0.01074 *
 * Al             15      0.00077     -0.00023      0.00047 *
 * Al             16      0.00023     -0.00009      0.00003 *
 * Al             17     -0.00023      0.00001      0.00068 *
 * Al             18      0.00001      0.00006      0.00013 *
 * Al             19     -0.00013     -0.00022      0.00055 *
 * Al             20      0.00022     -0.00016      0.00057 *
 * Al             21     -0.00014      0.00002     -0.00058 *
 * Al             22     -0.00012      0.00021      0.00064 *
 * Al             23      0.00015      0.00014      0.00058 *
 * Al             24     -0.00012     -0.00002     -0.00060 *
 * Al             25      0.00005      0.00007     -0.00055 *
 * Al             26      0.00001      0.00006     -0.00057 *
 * Al             27      0.00016      0.00001      0.00145 *
 * Ti              1     -0.05370     -0.00002     -0.06349 *
 * Ti              2      0.01173      0.00023      0.00307 *
 * Ti              3      0.01350     -0.00001      0.00315 *
 * Ti              4      0.00253     -0.00125      0.00321 *
 * Ti              5     -0.00100      0.00130      0.00195 *
 * Ti              6     -0.00312     -0.00003      0.00215 *
 * Ti              7      0.00215      0.00120      0.00321 *
 * Ti              8     -0.00098     -0.00155      0.00203 *
 * Ti              9     -0.00273     -0.00000      0.00212 *
 * Ti             10      0.00053     -0.00052     -0.01221 *
 * Ti             11      0.00404      0.00034      0.00414 *
 * Ti             12     -0.00304     -0.00013      0.00029 *
 * Ti             13      0.00054      0.00376      0.00221 *
 * Ti             14     -0.00151     -0.00256     -0.00465 *
 * Ti             15      0.00103     -0.00072     -0.00261 *
 * Ti             16      0.00007     -0.00328      0.00227 *
 * Ti             17     -0.00174      0.00224     -0.00468 *
 * Ti             18      0.00186      0.00086     -0.00259 *
 * Ti             19      0.00045     -0.00054     -0.00845 *
 * Ti             20     -0.00105     -0.00001      0.00268 *
 * Ti             21      0.00211     -0.00007      0.00640 *
 * Ti             22      0.00039     -0.00155      0.00442 *
 * Ti             23      0.00129      0.00040      0.00059 *
 * Ti             24     -0.00156      0.00199     -0.00154 *
 * Ti             25      0.00030      0.00195      0.00446 *
 * Ti             26      0.00113     -0.00037      0.00063 *
 * Ti             27     -0.00130     -0.00188     -0.00148 *
 *                                                          *
 ************************************************************

 ***************** Stress Tensor *****************
 *                                               *
 *          Cartesian components (GPa)           *
 * --------------------------------------------- *
 *             x             y             z     *
 *                                               *
 *  x     -0.607984      0.000165     -0.000197  *
 *  y      0.000165     -0.608028      0.000017  *
 *  z     -0.000197      0.000017     -0.936983  *
 *                                               *
 *  Pressure:    0.7177                          *
 *                                               *
 *************************************************

 Pseudo atomic calculation performed for Al 3s2 3p1

 Converged in 15 iterations to a total energy of -105.5951 eV


 Pseudo atomic calculation performed for Ti 3s2 3p6 3d2 4s2

 Converged in 31 iterations to a total energy of -1585.9719 eV

Charge spilling parameter for spin component 1 = 0.26%
Charge spilling parameter for spin component 2 = 0.26%

     Atomic Populations (Mulliken)
     -----------------------------
Species          Ion     s      p      d      f     Total  Charge (e)  Spin (hbar/2)
==================================================================================
  Al              1     0.96   2.15   0.00   0.00   3.11    -0.11        0.00
  Al              2     0.96   2.15   0.00   0.00   3.11    -0.11        0.00
  Al              3     0.96   2.15   0.00   0.00   3.11    -0.11       -0.00
  Al              4     0.96   2.15   0.00   0.00   3.11    -0.11        0.00
  Al              5     0.96   2.15   0.00   0.00   3.11    -0.11        0.00
  Al              6     0.96   2.15   0.00   0.00   3.11    -0.11        0.00
  Al              7     0.96   2.15   0.00   0.00   3.11    -0.11        0.00
  Al              8     0.96   2.15   0.00   0.00   3.11    -0.11        0.00
  Al              9     0.96   2.15   0.00   0.00   3.11    -0.11        0.00
  Al             10     0.96   2.15   0.00   0.00   3.11    -0.11       -0.00
  Al             11     0.96   2.15   0.00   0.00   3.11    -0.11        0.00
  Al             12     0.96   2.15   0.00   0.00   3.11    -0.11       -0.00
  Al             13     0.96   2.15   0.00   0.00   3.11    -0.11       -0.00
  Al             14     0.96   2.15   0.00   0.00   3.11    -0.11       -0.00
  Al             15     0.96   2.15   0.00   0.00   3.11    -0.11        0.00
  Al             16     0.96   2.15   0.00   0.00   3.11    -0.11        0.00
  Al             17     0.96   2.15   0.00   0.00   3.11    -0.11       -0.00
  Al             18     0.96   2.15   0.00   0.00   3.11    -0.11       -0.00
  Al             19     0.96   2.15   0.00   0.00   3.11    -0.11        0.00
  Al             20     0.96   2.15   0.00   0.00   3.11    -0.11        0.00
  Al             21     0.96   2.15   0.00   0.00   3.11    -0.11        0.00
  Al             22     0.96   2.15   0.00   0.00   3.11    -0.11       -0.00
  Al             23     0.96   2.15   0.00   0.00   3.11    -0.11        0.00
  Al             24     0.96   2.15   0.00   0.00   3.11    -0.11        0.00
  Al             25     0.96   2.15   0.00   0.00   3.11    -0.11        0.00
  Al             26     0.96   2.15   0.00   0.00   3.11    -0.11       -0.00
  Al             27     0.96   2.15   0.00   0.00   3.11    -0.11        0.00
  Ti              1     2.28   6.72   2.89   0.00  11.89     0.11        0.00
  Ti              2     2.28   6.72   2.89   0.00  11.89     0.11        0.00
  Ti              3     2.28   6.72   2.89   0.00  11.89     0.11        0.00
  Ti              4     2.28   6.72   2.89   0.00  11.89     0.11        0.00
  Ti              5     2.28   6.72   2.89   0.00  11.89     0.11        0.00
  Ti              6     2.28   6.72   2.89   0.00  11.89     0.11        0.00
  Ti              7     2.28   6.72   2.89   0.00  11.89     0.11        0.00
  Ti              8     2.28   6.72   2.89   0.00  11.89     0.11        0.00
  Ti              9     2.28   6.72   2.89   0.00  11.89     0.11        0.00
  Ti             10     2.28   6.72   2.89   0.00  11.89     0.11        0.00
  Ti             11     2.28   6.72   2.89   0.00  11.89     0.11        0.00
  Ti             12     2.28   6.72   2.89   0.00  11.89     0.11        0.00
  Ti             13     2.28   6.72   2.89   0.00  11.89     0.11       -0.00
  Ti             14     2.28   6.72   2.89   0.00  11.89     0.11        0.00
  Ti             15     2.28   6.72   2.89   0.00  11.89     0.11        0.00
  Ti             16     2.28   6.72   2.89   0.00  11.89     0.11        0.00
  Ti             17     2.28   6.72   2.89   0.00  11.89     0.11        0.00
  Ti             18     2.28   6.72   2.89   0.00  11.89     0.11       -0.00
  Ti             19     2.28   6.72   2.89   0.00  11.89     0.11        0.00
  Ti             20     2.28   6.72   2.89   0.00  11.89     0.11        0.00
  Ti             21     2.28   6.72   2.89   0.00  11.89     0.11        0.00
  Ti             22     2.28   6.72   2.89   0.00  11.89     0.11       -0.00
  Ti             23     2.28   6.72   2.89   0.00  11.89     0.11        0.00
  Ti             24     2.28   6.72   2.89   0.00  11.89     0.11        0.00
  Ti             25     2.28   6.72   2.89   0.00  11.89     0.11        0.00
  Ti             26     2.28   6.72   2.89   0.00  11.89     0.11        0.00
  Ti             27     2.28   6.72   2.89   0.00  11.89     0.11       -0.00
==================================================================================

                 Bond                   Population        Spin       Length (A)
================================================================================
             Ti 1  -- Ti 2                   0.13        -0.00          2.75768
             Ti 25 -- Ti 27                  0.14        -0.00          2.76337
             Ti 22 -- Ti 24                  0.14        -0.00          2.76337
             Ti 21 -- Ti 27                  0.14         0.00          2.76337
             Ti 20 -- Ti 26                  0.14         0.00          2.76337
             Ti 19 -- Ti 25                  0.14         0.00          2.76337
             Ti 19 -- Ti 21                  0.14        -0.00          2.76337
             Ti 16 -- Ti 18                  0.14        -0.00          2.76337
             Ti 13 -- Ti 15                  0.14        -0.00          2.76337
             Ti 12 -- Ti 18                  0.14         0.00          2.76337
             Ti 11 -- Ti 17                  0.14         0.00          2.76337
             Ti 10 -- Ti 16                  0.14         0.00          2.76337
             Ti 10 -- Ti 12                  0.14        -0.00          2.76337
             Ti 7  -- Ti 9                   0.14        -0.00          2.76337
             Ti 4  -- Ti 6                   0.14        -0.00          2.76337
             Ti 3  -- Ti 9                   0.14         0.00          2.76337
             Ti 2  -- Ti 8                   0.14         0.00          2.76337
             Al 25 -- Al 26                  0.38         0.00          2.76337
             Al 22 -- Al 23                  0.38         0.00          2.76337
             Al 21 -- Al 24                  0.38        -0.00          2.76337
             Al 20 -- Al 23                  0.38        -0.00          2.76337
             Al 19 -- Al 22                  0.38        -0.00          2.76337
             Al 19 -- Al 20                  0.38         0.00          2.76337
             Al 16 -- Al 17                  0.38         0.00          2.76337
             Al 13 -- Al 14                  0.37         0.00          2.76337
             Al 12 -- Al 15                  0.38        -0.00          2.76337
             Al 11 -- Al 14                  0.37        -0.00          2.76337
             Al 10 -- Al 13                  0.38        -0.00          2.76337
             Al 10 -- Al 11                  0.37         0.00          2.76337
             Al 7  -- Al 8                   0.38         0.00          2.76337
             Al 4  -- Al 5                   0.38         0.00          2.76337
             Al 3  -- Al 6                   0.38        -0.00          2.76337
             Al 2  -- Al 5                   0.38        -0.00          2.76337
             Al 1  -- Al 4                   0.38        -0.00          2.76337
             Al 1  -- Al 2                   0.38         0.00          2.76337
             Al 25 -- Al 27                  0.38         0.00          2.76337
             Al 22 -- Al 24                  0.38         0.00          2.76337
             Al 21 -- Al 27                  0.38         0.00          2.76337
             Al 20 -- Al 26                  0.38         0.00          2.76337
             Al 19 -- Al 25                  0.38         0.00          2.76337
             Al 19 -- Al 21                  0.38        -0.00          2.76337
             Al 16 -- Al 18                  0.38         0.00          2.76337
             Al 13 -- Al 15                  0.38         0.00          2.76337
             Al 12 -- Al 18                  0.38         0.00          2.76337
             Al 11 -- Al 17                  0.38         0.00          2.76337
             Al 10 -- Al 16                  0.38         0.00          2.76337
             Al 10 -- Al 12                  0.38        -0.00          2.76337
             Al 7  -- Al 9                   0.38         0.00          2.76337
             Al 4  -- Al 6                   0.38         0.00          2.76337
             Al 3  -- Al 9                   0.38         0.00          2.76337
             Al 2  -- Al 8                   0.38         0.00          2.76337
             Al 1  -- Al 7                   0.38         0.00          2.76337
             Al 1  -- Al 3                   0.38        -0.00          2.76337
             Ti 26 -- Ti 27                  0.14        -0.00          2.76337
             Ti 24 -- Ti 27                  0.14        -0.00          2.76337
             Ti 23 -- Ti 26                  0.14        -0.00          2.76337
             Ti 23 -- Ti 24                  0.14        -0.00          2.76337
             Ti 22 -- Ti 25                  0.14        -0.00          2.76337
             Ti 20 -- Ti 21                  0.14        -0.00          2.76337
             Ti 17 -- Ti 18                  0.14        -0.00          2.76337
             Ti 15 -- Ti 18                  0.14        -0.00          2.76337
             Ti 14 -- Ti 17                  0.14        -0.00          2.76337
             Ti 14 -- Ti 15                  0.14        -0.00          2.76337
             Ti 13 -- Ti 16                  0.14        -0.00          2.76337
             Ti 11 -- Ti 12                  0.14        -0.00          2.76337
             Ti 8  -- Ti 9                   0.14        -0.00          2.76337
             Ti 6  -- Ti 9                   0.14        -0.00          2.76337
             Ti 5  -- Ti 8                   0.14        -0.00          2.76337
             Ti 5  -- Ti 6                   0.14        -0.00          2.76337
             Ti 4  -- Ti 7                   0.14        -0.00          2.76337
             Ti 2  -- Ti 3                   0.14        -0.00          2.76337
             Ti 25 -- Ti 26                  0.14        -0.00          2.76337
             Ti 22 -- Ti 23                  0.14        -0.00          2.76337
             Ti 21 -- Ti 24                  0.14        -0.00          2.76337
             Ti 20 -- Ti 23                  0.14        -0.00          2.76337
             Ti 19 -- Ti 22                  0.14        -0.00          2.76337
             Ti 19 -- Ti 20                  0.14         0.00          2.76337
             Ti 16 -- Ti 17                  0.14        -0.00          2.76337
             Ti 13 -- Ti 14                  0.14        -0.00          2.76337
             Ti 12 -- Ti 15                  0.14        -0.00          2.76337
             Ti 11 -- Ti 14                  0.14        -0.00          2.76337
             Ti 10 -- Ti 13                  0.14        -0.00          2.76337
             Ti 10 -- Ti 11                  0.14        -0.00          2.76337
             Ti 7  -- Ti 8                   0.14        -0.00          2.76337
             Ti 4  -- Ti 5                   0.14        -0.00          2.76337
             Ti 3  -- Ti 6                   0.14        -0.00          2.76337
             Ti 2  -- Ti 5                   0.14        -0.00          2.76337
             Al 26 -- Al 27                  0.38         0.00          2.76337
             Al 24 -- Al 27                  0.38        -0.00          2.76337
             Al 23 -- Al 26                  0.38        -0.00          2.76337
             Al 23 -- Al 24                  0.38         0.00          2.76337
             Al 22 -- Al 25                  0.38        -0.00          2.76337
             Al 20 -- Al 21                  0.38         0.00          2.76337
             Al 17 -- Al 18                  0.38         0.00          2.76337
             Al 15 -- Al 18                  0.38        -0.00          2.76337
             Al 14 -- Al 17                  0.38        -0.00          2.76337
             Al 14 -- Al 15                  0.38         0.00          2.76337
             Al 13 -- Al 16                  0.38        -0.00          2.76337
             Al 11 -- Al 12                  0.38         0.00          2.76337
             Al 8  -- Al 9                   0.38         0.00          2.76337
             Al 6  -- Al 9                   0.38        -0.00          2.76337
             Al 5  -- Al 8                   0.38        -0.00          2.76337
             Al 5  -- Al 6                   0.38         0.00          2.76337
             Al 4  -- Al 7                   0.38        -0.00          2.76337
             Al 2  -- Al 3                   0.38         0.00          2.76337
             Ti 1  -- Ti 7                   0.14         0.00          2.76339
             Ti 1  -- Ti 4                   0.14        -0.00          2.76339
             Ti 1  -- Ti 3                   0.14        -0.00          2.76908
             Al 14 -- Ti 1                   0.16        -0.00          2.78183
             Al 11 -- Ti 1                   0.16         0.00          2.78183
             Al 13 -- Ti 1                   0.16        -0.00          2.78749
             Al 10 -- Ti 1                   0.16         0.00          2.78749
             Al 19 -- Ti 27                  0.16         0.00          2.79051
             Al 19 -- Ti 18                  0.16        -0.00          2.79051
             Al 26 -- Ti 25                  0.16         0.00          2.79051
             Al 26 -- Ti 22                  0.16         0.00          2.79051
             Al 26 -- Ti 16                  0.16         0.00          2.79051
             Al 26 -- Ti 13                  0.16        -0.00          2.79051
             Al 25 -- Ti 27                  0.16         0.00          2.79051
             Al 25 -- Ti 25                  0.16        -0.00          2.79051
             Al 25 -- Ti 24                  0.16         0.00          2.79051
             Al 25 -- Ti 22                  0.16        -0.00          2.79051
             Al 25 -- Ti 18                  0.16         0.00          2.79051
             Al 25 -- Ti 16                  0.16        -0.00          2.79051
             Al 25 -- Ti 15                  0.16        -0.00          2.79051
             Al 25 -- Ti 13                  0.16        -0.00          2.79051
             Al 24 -- Ti 21                  0.16        -0.00          2.79051
             Al 24 -- Ti 20                  0.16         0.00          2.79051
             Al 24 -- Ti 12                  0.16        -0.00          2.79051
             Al 24 -- Ti 11                  0.16        -0.00          2.79051
             Al 23 -- Ti 19                  0.16         0.00          2.79051
             Al 23 -- Ti 10                  0.16        -0.00          2.79051
             Al 22 -- Ti 21                  0.16         0.00          2.79051
             Al 22 -- Ti 19                  0.16        -0.00          2.79051
             Al 22 -- Ti 12                  0.16        -0.00          2.79051
             Al 22 -- Ti 10                  0.16        -0.00          2.79051
             Al 21 -- Ti 27                  0.16        -0.00          2.79051
             Al 21 -- Ti 26                  0.16         0.00          2.79051
             Al 21 -- Ti 21                  0.16        -0.00          2.79051
             Al 21 -- Ti 20                  0.16         0.00          2.79051
             Al 21 -- Ti 18                  0.16        -0.00          2.79051
             Al 21 -- Ti 17                  0.16        -0.00          2.79051
             Al 21 -- Ti 12                  0.16         0.00          2.79051
             Al 21 -- Ti 11                  0.16         0.00          2.79051
             Al 20 -- Ti 25                  0.16         0.00          2.79051
             Al 20 -- Ti 19                  0.16         0.00          2.79051
             Al 20 -- Ti 16                  0.16         0.00          2.79051
             Al 20 -- Ti 10                  0.16         0.00          2.79051
             Al 19 -- Ti 25                  0.16         0.00          2.79051
             Al 19 -- Ti 21                  0.16         0.00          2.79051
             Al 19 -- Ti 19                  0.16        -0.00          2.79051
             Al 19 -- Ti 16                  0.16        -0.00          2.79051
             Al 19 -- Ti 12                  0.16         0.00          2.79051
             Al 19 -- Ti 10                  0.16         0.00          2.79051
             Al 16 -- Ti 9                   0.16         0.00          2.79051
             Al 16 -- Ti 6                   0.16        -0.00          2.79051
             Al 13 -- Ti 12                  0.16         0.00          2.79051
             Al 13 -- Ti 3                   0.16        -0.00          2.79051
             Al 12 -- Ti 9                   0.16        -0.00          2.79051
             Al 12 -- Ti 8                   0.16        -0.00          2.79051
             Al 11 -- Ti 16                  0.16         0.00          2.79051
             Al 11 -- Ti 7                   0.16        -0.00          2.79051
             Al 10 -- Ti 18                  0.16         0.00          2.79051
             Al 10 -- Ti 16                  0.16         0.00          2.79051
             Al 10 -- Ti 12                  0.16         0.00          2.79051
             Al 10 -- Ti 9                   0.16        -0.00          2.79051
             Al 10 -- Ti 7                   0.16        -0.00          2.79051
             Al 10 -- Ti 3                   0.16         0.00          2.79051
             Al 7  -- Ti 9                   0.16         0.00          2.79051
             Al 7  -- Ti 6                   0.16         0.00          2.79051
             Al 4  -- Ti 3                   0.16         0.00          2.79051
             Al 3  -- Ti 9                   0.16        -0.00          2.79051
             Al 3  -- Ti 8                   0.16         0.00          2.79051
             Al 2  -- Ti 7                   0.16         0.00          2.79051
             Al 1  -- Ti 9                   0.16         0.00          2.79051
             Al 1  -- Ti 7                   0.16         0.00          2.79051
             Al 1  -- Ti 3                   0.16         0.00          2.79051
             Al 27 -- Ti 27                  0.16        -0.00          2.79051
             Al 27 -- Ti 26                  0.16         0.00          2.79051
             Al 27 -- Ti 24                  0.16         0.00          2.79051
             Al 27 -- Ti 23                  0.16         0.00          2.79051
             Al 27 -- Ti 18                  0.16        -0.00          2.79051
             Al 27 -- Ti 17                  0.16         0.00          2.79051
             Al 27 -- Ti 15                  0.16        -0.00          2.79051
             Al 27 -- Ti 14                  0.16        -0.00          2.79051
             Al 18 -- Ti 9                   0.16         0.00          2.79051
             Al 18 -- Ti 8                   0.16         0.00          2.79051
             Al 18 -- Ti 6                   0.16        -0.00          2.79051
             Al 18 -- Ti 5                   0.16        -0.00          2.79051
             Al 17 -- Ti 16                  0.16         0.00          2.79051
             Al 17 -- Ti 13                  0.16         0.00          2.79051
             Al 17 -- Ti 7                   0.16         0.00          2.79051
             Al 17 -- Ti 4                   0.16        -0.00          2.79051
             Al 16 -- Ti 18                  0.16         0.00          2.79051
             Al 16 -- Ti 16                  0.16        -0.00          2.79051
             Al 16 -- Ti 15                  0.16         0.00          2.79051
             Al 16 -- Ti 13                  0.16        -0.00          2.79051
             Al 16 -- Ti 7                   0.16         0.00          2.79051
             Al 16 -- Ti 4                   0.16        -0.00          2.79051
             Al 15 -- Ti 12                  0.16         0.00          2.79051
             Al 15 -- Ti 11                  0.16         0.00          2.79051
             Al 15 -- Ti 3                   0.16        -0.00          2.79051
             Al 15 -- Ti 2                   0.16        -0.00          2.79051
             Al 14 -- Ti 10                  0.16         0.00          2.79051
             Al 13 -- Ti 10                  0.16        -0.00          2.79051
             Al 12 -- Ti 18                  0.16        -0.00          2.79051
             Al 12 -- Ti 17                  0.16         0.00          2.79051
             Al 12 -- Ti 12                  0.16        -0.00          2.79051
             Al 12 -- Ti 11                  0.16         0.00          2.79051
             Al 12 -- Ti 3                   0.16         0.00          2.79051
             Al 12 -- Ti 2                   0.16         0.00          2.79051
             Al 11 -- Ti 10                  0.16         0.00          2.79051
             Al 10 -- Ti 10                  0.16        -0.00          2.79051
             Al 9  -- Ti 9                   0.16        -0.00          2.79051
             Al 9  -- Ti 8                   0.16         0.00          2.79051
             Al 9  -- Ti 6                   0.16        -0.00          2.79051
             Al 9  -- Ti 5                   0.16         0.00          2.79051
             Al 8  -- Ti 7                   0.16         0.00          2.79051
             Al 8  -- Ti 4                   0.16         0.00          2.79051
             Al 7  -- Ti 7                   0.16        -0.00          2.79051
             Al 7  -- Ti 4                   0.16        -0.00          2.79051
             Al 6  -- Ti 3                   0.16         0.00          2.79051
             Al 6  -- Ti 2                   0.16         0.00          2.79051
             Al 3  -- Ti 3                   0.16        -0.00          2.79051
             Al 3  -- Ti 2                   0.16         0.00          2.79051
             Al 18 -- Ti 18                  0.16        -0.00          2.79051
             Al 18 -- Ti 17                  0.16         0.00          2.79051
             Al 18 -- Ti 15                  0.16         0.00          2.79051
             Al 18 -- Ti 14                  0.16         0.00          2.79051
             Al 26 -- Ti 26                  0.16        -0.00          2.79051
             Al 26 -- Ti 23                  0.16         0.00          2.79051
             Al 26 -- Ti 17                  0.16         0.00          2.79051
             Al 26 -- Ti 14                  0.16        -0.00          2.79051
             Al 24 -- Ti 24                  0.16        -0.00          2.79051
             Al 24 -- Ti 23                  0.16         0.00          2.79051
             Al 24 -- Ti 15                  0.16        -0.00          2.79051
             Al 24 -- Ti 14                  0.16         0.00          2.79051
             Al 23 -- Ti 22                  0.16         0.00          2.79051
             Al 23 -- Ti 20                  0.16        -0.00          2.79051
             Al 23 -- Ti 13                  0.16         0.00          2.79051
             Al 23 -- Ti 11                  0.16        -0.00          2.79051
             Al 22 -- Ti 24                  0.16         0.00          2.79051
             Al 22 -- Ti 22                  0.16        -0.00          2.79051
             Al 22 -- Ti 15                  0.16         0.00          2.79051
             Al 22 -- Ti 13                  0.16         0.00          2.79051
             Al 20 -- Ti 26                  0.16        -0.00          2.79051
             Al 20 -- Ti 20                  0.16        -0.00          2.79051
             Al 20 -- Ti 17                  0.16        -0.00          2.79051
             Al 20 -- Ti 11                  0.16        -0.00          2.79051
             Al 14 -- Ti 4                   0.16         0.00          2.79051
             Al 14 -- Ti 2                   0.16        -0.00          2.79051
             Al 13 -- Ti 15                  0.16         0.00          2.79051
             Al 13 -- Ti 6                   0.16         0.00          2.79051
             Al 13 -- Ti 4                   0.16         0.00          2.79051
             Al 11 -- Ti 17                  0.16        -0.00          2.79051
             Al 11 -- Ti 8                   0.16        -0.00          2.79051
             Al 11 -- Ti 2                   0.16        -0.00          2.79051
             Al 5  -- Ti 4                   0.16         0.00          2.79051
             Al 5  -- Ti 2                   0.16        -0.00          2.79051
             Al 4  -- Ti 6                   0.16         0.00          2.79051
             Al 4  -- Ti 4                   0.16        -0.00          2.79051
             Al 2  -- Ti 8                   0.16        -0.00          2.79051
             Al 2  -- Ti 2                   0.16        -0.00          2.79051
             Al 17 -- Ti 8                   0.16         0.00          2.79051
             Al 17 -- Ti 5                   0.16        -0.00          2.79051
             Al 15 -- Ti 6                   0.16         0.00          2.79051
             Al 15 -- Ti 5                   0.16         0.00          2.79051
             Al 14 -- Ti 13                  0.16         0.00          2.79051
             Al 14 -- Ti 11                  0.16        -0.00          2.79051
             Al 13 -- Ti 13                  0.16        -0.00          2.79051
             Al 11 -- Ti 11                  0.16        -0.00          2.79051
             Al 8  -- Ti 8                   0.16        -0.00          2.79051
             Al 8  -- Ti 5                   0.16        -0.00          2.79051
             Al 6  -- Ti 6                   0.16        -0.00          2.79051
             Al 6  -- Ti 5                   0.16         0.00          2.79051
             Al 17 -- Ti 17                  0.16        -0.00          2.79051
             Al 17 -- Ti 14                  0.16         0.00          2.79051
             Al 15 -- Ti 15                  0.16        -0.00          2.79051
             Al 15 -- Ti 14                  0.16         0.00          2.79051
             Al 5  -- Ti 19                  0.16        -0.00          2.79052
             Al 4  -- Ti 21                  0.16        -0.00          2.79052
             Al 4  -- Ti 19                  0.16        -0.00          2.79052
             Al 2  -- Ti 25                  0.16        -0.00          2.79052
             Al 2  -- Ti 19                  0.16         0.00          2.79052
             Al 1  -- Ti 27                  0.16        -0.00          2.79052
             Al 1  -- Ti 25                  0.16        -0.00          2.79052
             Al 1  -- Ti 21                  0.16         0.00          2.79052
             Al 1  -- Ti 19                  0.16         0.00          2.79052
             Al 9  -- Ti 27                  0.16        -0.00          2.79052
             Al 9  -- Ti 26                  0.16         0.00          2.79052
             Al 9  -- Ti 24                  0.16        -0.00          2.79052
             Al 9  -- Ti 23                  0.16        -0.00          2.79052
             Al 8  -- Ti 25                  0.16         0.00          2.79052
             Al 8  -- Ti 22                  0.16        -0.00          2.79052
             Al 7  -- Ti 27                  0.16         0.00          2.79052
             Al 7  -- Ti 25                  0.16        -0.00          2.79052
             Al 7  -- Ti 24                  0.16        -0.00          2.79052
             Al 7  -- Ti 22                  0.16        -0.00          2.79052
             Al 6  -- Ti 21                  0.16        -0.00          2.79052
             Al 6  -- Ti 20                  0.16        -0.00          2.79052
             Al 3  -- Ti 27                  0.16        -0.00          2.79052
             Al 3  -- Ti 26                  0.16        -0.00          2.79052
             Al 3  -- Ti 21                  0.16         0.00          2.79052
             Al 3  -- Ti 20                  0.16         0.00          2.79052
             Al 23 -- Ti 23                  0.16        -0.00          2.79052
             Al 23 -- Ti 14                  0.16         0.00          2.79052
             Al 14 -- Ti 14                  0.16        -0.00          2.79052
             Al 14 -- Ti 5                   0.16         0.00          2.79052
             Al 5  -- Ti 5                   0.16        -0.00          2.79052
             Al 5  -- Ti 22                  0.16         0.00          2.79052
             Al 5  -- Ti 20                  0.16        -0.00          2.79052
             Al 4  -- Ti 24                  0.16         0.00          2.79052
             Al 4  -- Ti 22                  0.16         0.00          2.79052
             Al 2  -- Ti 26                  0.16        -0.00          2.79052
             Al 2  -- Ti 20                  0.16        -0.00          2.79052
             Al 8  -- Ti 26                  0.16         0.00          2.79052
             Al 8  -- Ti 23                  0.16        -0.00          2.79052
             Al 6  -- Ti 24                  0.16         0.00          2.79052
             Al 6  -- Ti 23                  0.16         0.00          2.79052
             Al 5  -- Ti 23                  0.16         0.00          2.79052
             Al 5  -- Ti 1                   0.16         0.00          2.79358
             Al 2  -- Ti 1                   0.16         0.00          2.79358
             Al 4  -- Ti 1                   0.16        -0.00          2.79921
             Al 1  -- Ti 1                   0.16        -0.00          2.79921
================================================================================

 
 A BibTeX formatted list of references used in this run has been written to 
 castep.bib
 
Initialisation time =     17.80 s
Calculation time    =   3527.71 s
Finalisation time   =      0.43 s
Total time          =   3545.94 s
Peak Memory Use     = 1873012 kB
  
Overall parallel efficiency rating: Very good (87%)                             
  
Data was distributed by:-
G-vector (2-way); efficiency rating: Very good (88%)                            
k-point (24-way); efficiency rating: Excellent (99%)                            
 +-------------------------------------------------+
 |                                                 |
 |      CCC   AA    SSS  TTTTT  EEEEE  PPPP        |
 |     C     A  A  S       T    E      P   P       |
 |     C     AAAA   SS     T    EEE    PPPP        |
 |     C     A  A     S    T    E      P           |
 |      CCC  A  A  SSS     T    EEEEE  P           |
 |                                                 |
 +-------------------------------------------------+
 |                                                 |
 | Welcome to Academic Release CASTEP version 17.21|          
 | Ab Initio Total Energy Program                  |
 |                                                 |
 | Authors:                                        |
 | M. Segall, M. Probert, C. Pickard, P. Hasnip,   |
 | S. Clark, K. Refson, J. R. Yates, M. Payne      |
 |                                                 |
 | Contributors:                                   |
 | P. Lindan, P. Haynes, J. White, V. Milman,      |
 | N. Govind, M. Gibson, P. Tulip, V. Cocula,      |
 | B. Montanari, D. Quigley, M. Glover,            |
 | L. Bernasconi, A. Perlov, M. Plummer,           |
 | E. McNellis, J. Meyer, J. Gale, D. Jochym       |
 | J. Aarons, B. Walker, R. Gillen, D. Jones       |
 | T. Green, I. J. Bush, C. J. Armstrong,          |
 | E. J. Higgins, E. L. Brown, M. S. McFly,        |
 | J. Wilkins, B-C. Shih, P. J. P. Byrne           |
 |                                                 |
 | Copyright (c) 2000 - 2017                       |
 |                                                 |
 |     Distributed under the terms of an           |
 |     Agreement between the United Kingdom        |
 |     Car-Parrinello (UKCP) Consortium,           |
 |     Daresbury Laboratory and Accelrys, Inc.     |
 |                                                 |
 | Please cite                                     |
 |                                                 |
 |     "First principles methods using CASTEP"     |
 |                                                 |
 |         Zeitschrift fuer Kristallographie       |
 |           220(5-6) pp. 567-570 (2005)           |
 |                                                 |
 | S. J. Clark, M. D. Segall, C. J. Pickard,       |
 | P. J. Hasnip, M. J. Probert, K. Refson,         |
 | M. C. Payne                                     |
 |                                                 |
 |       in all publications arising from          |
 |              your use of CASTEP                 |
 |                                                 |
 +-------------------------------------------------+


 Compiled for linux_x86_64_gfortran6.0-XT on Fri, 21 Jul 2017 10:20:05 +0100
 from code version 056e886bd5a1+ Castep172_branch Mon, 15 May 2017 14:45:35 +0100
 Compiler: GNU Fortran 6.3.0; Optimisation: fast
 MATHLIBS: Intel MKL(2017.0.0) (LAPACK version 3.6.0)
 FFT Lib : fftw3 version commercial-fftw-3.3.4-sse2-avx
 Fundamental constants values: CODATA 2010

 Run started: Thu, 12 Dec 2019 00:28:13 +0000

 Atomic calculation performed for Al: 1s2 2s2 2p6 3s2 3p1

 Converged in 55 iterations to an ae energy of -6578.725 eV

   ============================================================                
   | Pseudopotential Report - Date of generation 12-12-2019   |                
   ------------------------------------------------------------                
   | Element: Al Ionic charge:  3.00 Level of theory: LDA     |                
   | Atomic Solver: Koelling-Harmon                           |                
   |                                                          |                
   |               Reference Electronic Structure             |                
   |         Orbital         Occupation         Energy        |                
   |            3s              2.000           -0.288        |                
   |            3p              1.000           -0.102        |                
   |                                                          |                
   |                 Pseudopotential Definition               |                
   |        Beta     l      e      Rc     scheme   norm       |                
   |          1      0   -0.288   2.192     qc      0         |                
   |          2      0    0.250   2.192     qc      0         |                
   |          3      1   -0.102   2.192     qc      0         |                
   |          4      1    0.250   2.192     qc      0         |                
   |          5      2    0.000   2.000     qc      0         |                
   |          6      2    0.250   2.000     qc      0         |                
   |         loc     3    0.000   2.192     pn      0         |                
   |                                                          |                
   | Augmentation charge Rinner = 1.398                       |                
   | Partial core correction Rc = 1.398                       |                
   ------------------------------------------------------------                
   | "3|2.2|2.2|1.4|4|5|5|30:31:32U2U2"                       |                
   ------------------------------------------------------------                
   |      Author: Chris J. Pickard, Cambridge University      |                
   ============================================================                

 Atomic calculation performed for Ti: 1s2 2s2 2p6 3s2 3p6 3d2 4s2

 Converged in 78 iterations to an ae energy of -23176.516 eV

   ============================================================                
   | Pseudopotential Report - Date of generation 12-12-2019   |                
   ------------------------------------------------------------                
   | Element: Ti Ionic charge: 12.00 Level of theory: LDA     |                
   | Atomic Solver: Koelling-Harmon                           |                
   |                                                          |                
   |               Reference Electronic Structure             |                
   |         Orbital         Occupation         Energy        |                
   |            3s              2.000           -2.288        |                
   |            3p              6.000           -1.425        |                
   |            4s              2.000           -0.169        |                
   |            3d              2.000           -0.164        |                
   |                                                          |                
   |                 Pseudopotential Definition               |                
   |        Beta     l      e      Rc     scheme   norm       |                
   |          1      0   -2.288   1.793     qc      0         |                
   |          2      0   -0.169   1.793     qc      0         |                
   |          3      0    0.250   1.793     qc      0         |                
   |          4      1   -1.425   1.793     qc      0         |                
   |          5      1    0.250   1.793     qc      0         |                
   |          6      2   -0.164   1.793     qc      0         |                
   |          7      2    0.250   1.793     qc      0         |                
   |         loc     3    0.000   1.793     pn      0         |                
   |                                                          |                
   | Augmentation charge Rinner = 1.263                       |                
   | Partial core correction Rc = 1.263                       |                
   ------------------------------------------------------------                
   | "3|1.8|9|10|11|30U:40:31:32(qc=5.5)"                     |                
   ------------------------------------------------------------                
   |      Author: Chris J. Pickard, Cambridge University      |                
   ============================================================                

 Pseudo atomic calculation performed for Al 3s2 3p1

 Converged in 15 iterations to a total energy of -105.5951 eV


 Pseudo atomic calculation performed for Ti 3s2 3p6 3d2 4s2

 Converged in 31 iterations to a total energy of -1585.9719 eV

 Calculation parallelised over 48 processes.
 Data is distributed by G-vector(2-way) and k-point(24-way)

 ************************************ Title ************************************
 

 ***************************** General Parameters ******************************
  
 output verbosity                               : normal  (1)
 write checkpoint data to                       : castep.check
 type of calculation                            : single point energy
 stress calculation                             : on
 density difference calculation                 : off
 electron localisation func (ELF) calculation   : off
 Hirshfeld analysis                             : off
 unlimited duration calculation
 timing information                             : on
 memory usage estimate                          : on
 write final potential to formatted file        : off
 write final density to formatted file          : off
 write BibTeX reference list                    : on
 write OTFG pseudopotential files               : on
 write electrostatic potential file             : on
 write bands file                               : on
 checkpoint writing                             : off
  
 output         length unit                     : A
 output           mass unit                     : amu
 output           time unit                     : ps
 output         charge unit                     : e
 output           spin unit                     : hbar/2
 output         energy unit                     : eV
 output          force unit                     : eV/A
 output       velocity unit                     : A/ps
 output       pressure unit                     : GPa
 output     inv_length unit                     : 1/A
 output      frequency unit                     : cm-1
 output force constant unit                     : eV/A**2
 output         volume unit                     : A**3
 output   IR intensity unit                     : (D/A)**2/amu
 output         dipole unit                     : D
 output         efield unit                     : eV/A/e
 output        entropy unit                     : J/mol/K
  
 wavefunctions paging                           : none
 random number generator seed                   : randomised (2813614)
 data distribution                              : optimal for this architecture
 optimization strategy                          : maximize speed(+++)

 *********************** Exchange-Correlation Parameters ***********************
  
 using functional                               : Local Density Approximation
 relativistic treatment                         : Koelling-Harmon
 DFT+D: Semi-empirical dispersion correction    : off

 ************************* Pseudopotential Parameters **************************
  
 pseudopotential representation                 : reciprocal space
 <beta|phi> representation                      : reciprocal space
 spin-orbit coupling                            : off

 **************************** Basis Set Parameters *****************************
  
 plane wave basis set cut-off                   :   500.0000   eV
 size of standard grid                          :     1.7500
 size of   fine   gmax                          :    20.0476   1/A
 finite basis set correction                    : automatic
 number of sample energies                      :          3
           sample  spacing                      :     5.0000   eV

 **************************** Electronic Parameters ****************************
  
 number of  electrons                           :  405.0    
 net charge of system                           :  0.000    
 net spin   of system                           :  1.000    
 number of  up  spins                           :  203.0    
[...]
             Ti 4  -- Ti 5                   0.14        -0.00          2.76337
             Ti 3  -- Ti 6                   0.14        -0.00          2.76337
             Ti 2  -- Ti 5                   0.14        -0.00          2.76337
             Ti 1  -- Ti 4                   0.14        -0.00          2.76337
             Ti 1  -- Ti 2                   0.14        -0.00          2.76337
             Al 26 -- Al 27                  0.38         0.00          2.76337
             Al 24 -- Al 27                  0.38        -0.00          2.76337
             Al 23 -- Al 26                  0.38         0.00          2.76337
             Al 23 -- Al 24                  0.38        -0.00          2.76337
             Al 22 -- Al 25                  0.38        -0.00          2.76337
             Al 20 -- Al 21                  0.38         0.00          2.76337
             Al 17 -- Al 18                  0.38        -0.00          2.76337
             Al 15 -- Al 18                  0.38        -0.00          2.76337
             Al 14 -- Al 17                  0.38         0.00          2.76337
             Al 14 -- Al 15                  0.38        -0.00          2.76337
             Al 13 -- Al 16                  0.38         0.00          2.76337
             Al 11 -- Al 12                  0.38        -0.00          2.76337
             Al 8  -- Al 9                   0.38         0.00          2.76337
             Al 6  -- Al 9                   0.38        -0.00          2.76337
             Al 5  -- Al 8                   0.38         0.00          2.76337
             Al 5  -- Al 6                   0.38        -0.00          2.76337
             Al 4  -- Al 7                   0.38         0.00          2.76337
             Al 2  -- Al 3                   0.38        -0.00          2.76337
             Al 1  -- Al 4                   0.38         0.00          2.76339
             Al 1  -- Al 7                   0.38         0.00          2.76339
             Al 1  -- Al 3                   0.37        -0.00          2.76908
             Al 1  -- Ti 7                   0.16        -0.00          2.78183
             Al 1  -- Ti 1                   0.16         0.00          2.78183
             Al 1  -- Ti 9                   0.16        -0.00          2.78749
             Al 1  -- Ti 3                   0.16         0.00          2.78749
             Al 19 -- Ti 27                  0.16        -0.00          2.79051
             Al 19 -- Ti 18                  0.16         0.00          2.79051
             Al 26 -- Ti 25                  0.16         0.00          2.79051
             Al 26 -- Ti 22                  0.16        -0.00          2.79051
             Al 26 -- Ti 16                  0.16         0.00          2.79051
             Al 26 -- Ti 13                  0.16         0.00          2.79051
             Al 25 -- Ti 27                  0.16         0.00          2.79051
             Al 25 -- Ti 25                  0.16        -0.00          2.79051
             Al 25 -- Ti 24                  0.16        -0.00          2.79051
             Al 25 -- Ti 22                  0.16        -0.00          2.79051
             Al 25 -- Ti 18                  0.16         0.00          2.79051
             Al 25 -- Ti 16                  0.16        -0.00          2.79051
             Al 25 -- Ti 15                  0.16         0.00          2.79051
             Al 25 -- Ti 13                  0.16        -0.00          2.79051
             Al 24 -- Ti 21                  0.16        -0.00          2.79051
             Al 24 -- Ti 20                  0.16        -0.00          2.79051
             Al 24 -- Ti 12                  0.16        -0.00          2.79051
             Al 24 -- Ti 11                  0.16         0.00          2.79051
             Al 23 -- Ti 19                  0.16        -0.00          2.79051
             Al 23 -- Ti 10                  0.16         0.00          2.79051
             Al 22 -- Ti 21                  0.16        -0.00          2.79051
             Al 22 -- Ti 19                  0.16        -0.00          2.79051
             Al 22 -- Ti 12                  0.16         0.00          2.79051
             Al 22 -- Ti 10                  0.16        -0.00          2.79051
             Al 21 -- Ti 27                  0.16        -0.00          2.79051
             Al 21 -- Ti 26                  0.16        -0.00          2.79051
             Al 21 -- Ti 21                  0.16        -0.00          2.79051
             Al 21 -- Ti 20                  0.16         0.00          2.79051
             Al 21 -- Ti 18                  0.16        -0.00          2.79051
             Al 21 -- Ti 17                  0.16         0.00          2.79051
             Al 21 -- Ti 12                  0.16        -0.00          2.79051
             Al 21 -- Ti 11                  0.16         0.00          2.79051
             Al 20 -- Ti 25                  0.16        -0.00          2.79051
             Al 20 -- Ti 19                  0.16         0.00          2.79051
             Al 20 -- Ti 16                  0.16         0.00          2.79051
             Al 20 -- Ti 10                  0.16         0.00          2.79051
             Al 19 -- Ti 25                  0.16        -0.00          2.79051
             Al 19 -- Ti 21                  0.16         0.00          2.79051
             Al 19 -- Ti 19                  0.16         0.00          2.79051
             Al 19 -- Ti 16                  0.16        -0.00          2.79051
             Al 19 -- Ti 12                  0.16         0.00          2.79051
             Al 19 -- Ti 10                  0.16        -0.00          2.79051
             Al 16 -- Ti 9                   0.16         0.00          2.79051
             Al 16 -- Ti 6                   0.16         0.00          2.79051
             Al 14 -- Ti 1                   0.16         0.00          2.79051
             Al 13 -- Ti 12                  0.16        -0.00          2.79051
             Al 13 -- Ti 3                   0.16         0.00          2.79051
             Al 13 -- Ti 1                   0.16        -0.00          2.79051
             Al 12 -- Ti 9                   0.16        -0.00          2.79051
             Al 12 -- Ti 8                   0.16         0.00          2.79051
             Al 11 -- Ti 16                  0.16        -0.00          2.79051
             Al 11 -- Ti 7                   0.16         0.00          2.79051
             Al 11 -- Ti 1                   0.16         0.00          2.79051
             Al 10 -- Ti 18                  0.16        -0.00          2.79051
             Al 10 -- Ti 16                  0.16        -0.00          2.79051
             Al 10 -- Ti 12                  0.16         0.00          2.79051
             Al 10 -- Ti 9                   0.16         0.00          2.79051
             Al 10 -- Ti 7                   0.16        -0.00          2.79051
             Al 10 -- Ti 3                   0.16         0.00          2.79051
             Al 10 -- Ti 1                   0.16        -0.00          2.79051
             Al 7  -- Ti 9                   0.16         0.00          2.79051
             Al 7  -- Ti 6                   0.16        -0.00          2.79051
             Al 5  -- Ti 1                   0.16        -0.00          2.79051
             Al 4  -- Ti 3                   0.16        -0.00          2.79051
             Al 4  -- Ti 1                   0.16        -0.00          2.79051
             Al 3  -- Ti 9                   0.16        -0.00          2.79051
             Al 3  -- Ti 8                   0.16        -0.00          2.79051
             Al 2  -- Ti 7                   0.16        -0.00          2.79051
             Al 2  -- Ti 1                   0.16         0.00          2.79051
             Al 27 -- Ti 27                  0.16         0.00          2.79051
             Al 27 -- Ti 26                  0.16         0.00          2.79051
             Al 27 -- Ti 24                  0.16        -0.00          2.79051
             Al 27 -- Ti 23                  0.16        -0.00          2.79051
             Al 27 -- Ti 18                  0.16        -0.00          2.79051
             Al 27 -- Ti 17                  0.16         0.00          2.79051
             Al 27 -- Ti 15                  0.16        -0.00          2.79051
             Al 27 -- Ti 14                  0.16         0.00          2.79051
             Al 18 -- Ti 9                   0.16        -0.00          2.79051
             Al 18 -- Ti 8                   0.16         0.00          2.79051
             Al 18 -- Ti 6                   0.16        -0.00          2.79051
             Al 18 -- Ti 5                   0.16         0.00          2.79051
             Al 17 -- Ti 16                  0.16         0.00          2.79051
             Al 17 -- Ti 13                  0.16        -0.00          2.79051
             Al 17 -- Ti 7                   0.16         0.00          2.79051
             Al 17 -- Ti 4                   0.16         0.00          2.79051
             Al 16 -- Ti 18                  0.16         0.00          2.79051
             Al 16 -- Ti 16                  0.16        -0.00          2.79051
             Al 16 -- Ti 15                  0.16        -0.00          2.79051
             Al 16 -- Ti 13                  0.16        -0.00          2.79051
             Al 16 -- Ti 7                   0.16        -0.00          2.79051
             Al 16 -- Ti 4                   0.16        -0.00          2.79051
             Al 15 -- Ti 12                  0.16        -0.00          2.79051
             Al 15 -- Ti 11                  0.16        -0.00          2.79051
             Al 15 -- Ti 3                   0.16        -0.00          2.79051
             Al 15 -- Ti 2                   0.16         0.00          2.79051
             Al 14 -- Ti 10                  0.16        -0.00          2.79051
             Al 13 -- Ti 10                  0.16        -0.00          2.79051
             Al 12 -- Ti 18                  0.16        -0.00          2.79051
             Al 12 -- Ti 17                  0.16        -0.00          2.79051
             Al 12 -- Ti 12                  0.16        -0.00          2.79051
             Al 12 -- Ti 11                  0.16         0.00          2.79051
             Al 12 -- Ti 3                   0.16        -0.00          2.79051
             Al 12 -- Ti 2                   0.16         0.00          2.79051
             Al 11 -- Ti 10                  0.16         0.00          2.79051
             Al 10 -- Ti 10                  0.16         0.00          2.79051
             Al 9  -- Ti 9                   0.16         0.00          2.79051
             Al 9  -- Ti 8                   0.16         0.00          2.79051
             Al 9  -- Ti 6                   0.16        -0.00          2.79051
             Al 9  -- Ti 5                   0.16        -0.00          2.79051
             Al 8  -- Ti 7                   0.16         0.00          2.79051
             Al 8  -- Ti 4                   0.16        -0.00          2.79051
             Al 7  -- Ti 7                   0.16        -0.00          2.79051
             Al 7  -- Ti 4                   0.16        -0.00          2.79051
             Al 6  -- Ti 3                   0.16        -0.00          2.79051
             Al 6  -- Ti 2                   0.16        -0.00          2.79051
             Al 3  -- Ti 3                   0.16        -0.00          2.79051
             Al 3  -- Ti 2                   0.16         0.00          2.79051
             Al 18 -- Ti 18                  0.16         0.00          2.79051
             Al 18 -- Ti 17                  0.16         0.00          2.79051
             Al 18 -- Ti 15                  0.16        -0.00          2.79051
             Al 18 -- Ti 14                  0.16        -0.00          2.79051
             Al 26 -- Ti 26                  0.16        -0.00          2.79051
             Al 26 -- Ti 23                  0.16        -0.00          2.79051
             Al 26 -- Ti 17                  0.16        -0.00          2.79051
             Al 26 -- Ti 14                  0.16        -0.00          2.79051
             Al 24 -- Ti 24                  0.16         0.00          2.79051
             Al 24 -- Ti 23                  0.16         0.00          2.79051
             Al 24 -- Ti 15                  0.16        -0.00          2.79051
             Al 24 -- Ti 14                  0.16         0.00          2.79051
             Al 23 -- Ti 22                  0.16         0.00          2.79051
             Al 23 -- Ti 20                  0.16        -0.00          2.79051
             Al 23 -- Ti 13                  0.16         0.00          2.79051
             Al 23 -- Ti 11                  0.16        -0.00          2.79051
             Al 22 -- Ti 24                  0.16         0.00          2.79051
             Al 22 -- Ti 22                  0.16        -0.00          2.79051
             Al 22 -- Ti 15                  0.16         0.00          2.79051
             Al 22 -- Ti 13                  0.16        -0.00          2.79051
             Al 20 -- Ti 26                  0.16        -0.00          2.79051
             Al 20 -- Ti 20                  0.16         0.00          2.79051
             Al 20 -- Ti 17                  0.16        -0.00          2.79051
             Al 20 -- Ti 11                  0.16        -0.00          2.79051
             Al 14 -- Ti 4                   0.16         0.00          2.79051
             Al 14 -- Ti 2                   0.16        -0.00          2.79051
             Al 13 -- Ti 15                  0.16         0.00          2.79051
             Al 13 -- Ti 6                   0.16         0.00          2.79051
             Al 13 -- Ti 4                   0.16        -0.00          2.79051
             Al 11 -- Ti 17                  0.16        -0.00          2.79051
             Al 11 -- Ti 8                   0.16        -0.00          2.79051
             Al 11 -- Ti 2                   0.16        -0.00          2.79051
             Al 5  -- Ti 4                   0.16         0.00          2.79051
             Al 5  -- Ti 2                   0.16        -0.00          2.79051
             Al 4  -- Ti 6                   0.16         0.00          2.79051
             Al 4  -- Ti 4                   0.16        -0.00          2.79051
             Al 2  -- Ti 8                   0.16        -0.00          2.79051
             Al 2  -- Ti 2                   0.16         0.00          2.79051
             Al 17 -- Ti 8                   0.16        -0.00          2.79051
             Al 17 -- Ti 5                   0.16        -0.00          2.79051
             Al 15 -- Ti 6                   0.16        -0.00          2.79051
             Al 15 -- Ti 5                   0.16         0.00          2.79051
             Al 14 -- Ti 13                  0.16         0.00          2.79051
             Al 14 -- Ti 11                  0.16        -0.00          2.79051
             Al 13 -- Ti 13                  0.16        -0.00          2.79051
             Al 11 -- Ti 11                  0.16         0.00          2.79051
             Al 8  -- Ti 8                   0.16         0.00          2.79051
             Al 8  -- Ti 5                   0.16        -0.00          2.79051
             Al 6  -- Ti 6                   0.16         0.00          2.79051
             Al 6  -- Ti 5                   0.16         0.00          2.79051
             Al 17 -- Ti 17                  0.16        -0.00          2.79051
             Al 17 -- Ti 14                  0.16        -0.00          2.79051
             Al 15 -- Ti 15                  0.16         0.00          2.79051
             Al 15 -- Ti 14                  0.16         0.00          2.79051
             Al 5  -- Ti 19                  0.16         0.00          2.79052
             Al 4  -- Ti 21                  0.16         0.00          2.79052
             Al 4  -- Ti 19                  0.16        -0.00          2.79052
             Al 2  -- Ti 25                  0.16         0.00          2.79052
             Al 2  -- Ti 19                  0.16         0.00          2.79052
             Al 9  -- Ti 27                  0.16        -0.00          2.79052
             Al 9  -- Ti 26                  0.16         0.00          2.79052
             Al 9  -- Ti 24                  0.16        -0.00          2.79052
             Al 9  -- Ti 23                  0.16         0.00          2.79052
             Al 8  -- Ti 25                  0.16         0.00          2.79052
             Al 8  -- Ti 22                  0.16         0.00          2.79052
             Al 7  -- Ti 27                  0.16         0.00          2.79052
             Al 7  -- Ti 25                  0.16        -0.00          2.79052
             Al 7  -- Ti 24                  0.16         0.00          2.79052
             Al 7  -- Ti 22                  0.16        -0.00          2.79052
             Al 6  -- Ti 21                  0.16        -0.00          2.79052
             Al 6  -- Ti 20                  0.16         0.00          2.79052
             Al 3  -- Ti 27                  0.16        -0.00          2.79052
             Al 3  -- Ti 26                  0.16         0.00          2.79052
             Al 3  -- Ti 21                  0.16        -0.00          2.79052
             Al 3  -- Ti 20                  0.16         0.00          2.79052
             Al 23 -- Ti 23                  0.16        -0.00          2.79052
             Al 23 -- Ti 14                  0.16        -0.00          2.79052
             Al 14 -- Ti 14                  0.16        -0.00          2.79052
             Al 14 -- Ti 5                   0.16        -0.00          2.79052
             Al 5  -- Ti 5                   0.16        -0.00          2.79052
             Al 5  -- Ti 22                  0.16         0.00          2.79052
             Al 5  -- Ti 20                  0.16        -0.00          2.79052
             Al 4  -- Ti 24                  0.16         0.00          2.79052
             Al 4  -- Ti 22                  0.16        -0.00          2.79052
             Al 2  -- Ti 26                  0.16        -0.00          2.79052
             Al 2  -- Ti 20                  0.16        -0.00          2.79052
             Al 8  -- Ti 26                  0.16        -0.00          2.79052
             Al 8  -- Ti 23                  0.16        -0.00          2.79052
             Al 6  -- Ti 24                  0.16        -0.00          2.79052
             Al 6  -- Ti 23                  0.16         0.00          2.79052
             Al 5  -- Ti 23                  0.16        -0.00          2.79052
             Al 1  -- Ti 25                  0.16        -0.00          2.79358
             Al 1  -- Ti 19                  0.16        -0.00          2.79358
             Al 1  -- Ti 27                  0.16         0.00          2.79921
             Al 1  -- Ti 21                  0.16         0.00          2.79921
================================================================================

 
 A BibTeX formatted list of references used in this run has been written to 
 castep.bib
 
Initialisation time =     16.11 s
Calculation time    =   3334.23 s
Finalisation time   =      0.41 s
Total time          =   3350.75 s
Peak Memory Use     = 1853192 kB
  
Overall parallel efficiency rating: Very good (86%)                             
  
Data was distributed by:-
G-vector (2-way); efficiency rating: Very good (87%)                            
k-point (24-way); efficiency rating: Excellent (99%)                            
