2
Lattice="2.95 0.0 0.0 -1.4749999999999994 2.5547749411640948 0.0 0.0 0.0 4.6846000000000005" Properties=species:S:1:pos:R:3 energy=-3187.20782187 pbc="T T T" n_minim_iter=1
Ti       0.00000000       0.00000000       0.00000000 
Ti       0.00000000       1.70318329       2.34230000 
2
Lattice="2.8381034758935644 -1.7739409394776643e-16 7.591340423291555e-17 -1.4190517379467817 2.4578697095111277 -4.969082018810647e-17 1.2055048592186992e-16 -2.15164352181247e-17 4.485972396484069" Properties=species:S:1:pos:R:3 stress="-0.03457702829484067 3.4009570157558265e-17 -6.613433936098942e-17 3.4009570157558265e-17 -0.03457702865765574 -3.387098185210774e-17 -6.613433936098942e-17 -3.387098185210774e-17 -0.03851537934034053" pbc="T T T" n_minim_iter=2
Ti      -0.00000000      -0.00000000       0.00000000 
Ti      -0.00000000       1.63857980       2.24298620 
2
Lattice="2.876128161958526 -2.174211607906119e-16 1.5008782547465387e-16 -1.4380640809792626 2.4908000539731208 -5.452205110073045e-17 2.3833946685375035e-16 3.763020823235203e-17 4.552971726726925" Properties=species:S:1:pos:R:3 stress="0.004264925127592456 7.107494690752795e-17 1.3788180702105786e-17 7.107494690752795e-17 0.0042649249379491825 5.669508439130093e-17 1.3788180702105786e-17 5.669508439130093e-17 0.0029250059850233047" pbc="T T T" n_minim_iter=3
Ti      -0.00000000      -0.00000000       0.00000000 
Ti      -0.00000000       1.66053337       2.27648586 
