2
Lattice="2.6259143819553383 -4.2153740431099337e-16 1.0974241574871963e-17 -1.312957190977669 2.2741085638545813 5.423589529746029e-16 1.4080464057711077e-17 1.0008965080366088e-15 4.233036385146094" Properties=species:S:1:pos:R:3 stress="-0.270618379513997 -5.4643177324424615e-17 2.995509815021833e-17 -5.4643177324424615e-17 -0.27061837951696205 1.1858513082148288e-16 2.995509815021833e-17 1.1858513082148288e-16 -0.2705273928448992" pbc="T T T" n_minim_iter=0
Ti      -0.00000000      -0.00000000       0.00000000 
Ti       0.00000000       1.51607237       2.11651819 
