2
Lattice="2.5973695735510542 -4.1695511308170487e-16 1.0854946892117003e-17 -1.298684786775527 2.249388034620329 5.364632800214429e-16 1.3927403412804794e-17 9.900163364473327e-16 4.187021475668207" Properties=species:S:1:pos:R:3 energy=-3186.24831222 pbc="T T T" n_minim_iter=0
Ti      -0.00000000      -0.00000000       0.00000000 
Ti      -0.00000000       1.49959202       2.09351074 
