2
Lattice="3.0387802792246266 -8.236237774983863e-16 -3.2448095566980407e-16 -1.519390139612313 2.6316609201836214 1.3847729930748066e-16 -5.06606266886121e-16 -4.23233670420836e-17 4.690408456513162" Properties=species:S:1:pos:R:3 stress="0.08513224860689649 -6.508789003606099e-17 -3.0893479381180384e-17 -6.508789003606099e-17 0.08513224861061176 -4.2062304636502334e-17 -3.0893479381180384e-17 -4.2062304636502334e-17 0.08531880174482594" pbc="T T T" n_minim_iter=0
Ti      -0.00000000      -0.00000000       0.00000000 
Ti      -0.00000000       1.75444061       2.34520423 
