2
Lattice="2.876128161958526 -2.174211607906119e-16 1.5008782547465387e-16 -1.4380640809792626 2.4908000539731208 -5.452205110073045e-17 2.3833946685375035e-16 3.763020823235203e-17 4.552971726726925" Properties=species:S:1:pos:R:3 stress="0.004264925127592456 7.107494690752795e-17 1.3788180702105786e-17 7.107494690752795e-17 0.0042649249379491825 5.669508439130093e-17 1.3788180702105786e-17 5.669508439130093e-17 0.0029250059850233047" pbc="T T T" n_minim_iter=3
Ti      -0.00000000      -0.00000000       0.00000000 
Ti      -0.00000000       1.66053337       2.27648586 
