2
Lattice="2.8998988941599353 -2.1921811137731794e-16 1.5132827697929764e-16 -1.449949447079967 2.511386111935827 -5.497266699919043e-17 2.4030930384312467e-16 3.794121579258724e-17 4.590601298686929" Properties=species:S:1:pos:R:3 energy=-3187.2901846 pbc="T T T" n_minim_iter=0
Ti      -0.00000000      -0.00000000       0.00000000 
Ti       0.00000000       1.67425740       2.29530065 
