2
Lattice="3.1244244199663744 -8.468365616541135e-16 -3.336260369464578e-16 -1.562212209983187 2.7058309218035723 1.4238010511167432e-16 -5.208843174310974e-16 -4.351619708260952e-17 4.822601627810298" Properties=species:S:1:pos:R:3 energy=-3186.7136122 pbc="T T T" n_minim_iter=0
Ti      -0.00000000      -0.00000000       0.00000000 
Ti      -0.00000000       1.80388728       2.41130081 
