2
Lattice="2.9232861855472465 -2.2098607572203439e-16 1.5254871901470173e-16 -1.4616430927736226 2.53164010041252 -5.541601410485569e-17 2.4224736579534635e-16 3.8247206553546906e-17 4.627623875726278" Properties=species:S:1:pos:R:3 energy=-3187.26298785 pbc="T T T" n_minim_iter=0
Ti      -0.00000000      -0.00000000       0.00000000 
Ti       0.00000000       1.68776006       2.31381194 
