2
Lattice="2.724464853899203 -2.059561597090371e-16 1.421734298604418e-16 -1.3622324269496011 2.359455776309686 -5.1647007233949e-17 2.2577140661838164e-16 3.5645901017198817e-17 4.3128855015339" Properties=species:S:1:pos:R:3 energy=-3186.96661746 pbc="T T T" n_minim_iter=0
Ti      -0.00000000      -0.00000000       0.00000000 
Ti       0.00000000       1.57297051       2.15644275 
