2
Lattice="3.060642759530737 -8.29549332148819e-16 -3.268154312985748e-16 -1.5303213797653683 2.6505943835318027 1.3947357312485768e-16 -5.102510416032901e-16 -4.2627862166252936e-17 4.724153562472023" Properties=species:S:1:pos:R:3 energy=-3186.97422531 pbc="T T T" n_minim_iter=0
Ti      -0.00000000      -0.00000000       0.00000000 
Ti      -0.00000000       1.76706292       2.36207678 
