2
Lattice="2.946305134762879 -2.227261952079598e-16 1.5374993948817782e-16 -1.4731525673814387 2.551575095211103 -5.585237863896088e-17 2.441549039072264e-16 3.8548378060342466e-17 4.664063359315343" Properties=species:S:1:pos:R:3 energy=-3187.22251505 pbc="T T T" n_minim_iter=0
Ti      -0.00000000      -0.00000000       0.00000000 
Ti       0.00000000       1.70105006       2.33203168 
