2
Lattice="2.80234851491292 -2.1184378189785285e-16 1.4623770956680712e-16 -1.4011742574564596 2.426905005319178 -5.3123428556846594e-17 2.3222548279208976e-16 3.666490233313751e-17 4.4361769845977035" Properties=species:S:1:pos:R:3 energy=-3187.22131821 pbc="T T T" n_minim_iter=0
Ti      -0.00000000      -0.00000000       0.00000000 
Ti       0.00000000       1.61793667       2.21808849 
