2
Lattice="3.103454496721232 -8.411529235460557e-16 -3.3138686855990944e-16 -1.5517272483606157 2.6876704355450616 1.4142450514364587e-16 -5.173883441931702e-16 -4.3224133268579844e-17 4.790234198682929" Properties=species:S:1:pos:R:3 energy=-3186.80588845 pbc="T T T" n_minim_iter=0
Ti      -0.00000000      -0.00000000       0.00000000 
Ti      -0.00000000       1.79178029       2.39511710 
