2
Lattice="3.08219729194162 -8.353914213343499e-16 -3.2911702425135114e-16 -1.5410986459708098 2.669261156179487 1.4045581374834108e-16 -5.138444771911832e-16 -4.292806826963039e-17 4.757423345676615" Properties=species:S:1:pos:R:3 energy=-3186.8932675 pbc="T T T" n_minim_iter=0
Ti      -0.00000000      -0.00000000       0.00000000 
Ti      -0.00000000       1.77950743       2.37871167 
