2
Lattice="2.776871209136259 -2.0991782273196957e-16 1.449082022543207e-16 -1.388435604568129 2.4048410112861776 -5.2640461564680936e-17 2.3011422517986136e-16 3.6331566588835275e-17 4.39584587056441" Properties=species:S:1:pos:R:3 energy=-3187.15382284 pbc="T T T" n_minim_iter=0
Ti      -0.00000000      -0.00000000       0.00000000 
Ti       0.00000000       1.60322734       2.19792294 
