2
Lattice="2.8519578750113115 -2.1559400582783476e-16 1.4882652361161881e-16 -1.4259789375056553 2.4698679714501806 -5.406386094165284e-17 2.363365194952507e-16 3.731397304405638e-17 4.514709651151472" Properties=species:S:1:pos:R:3 energy=-3187.29542857 pbc="T T T" n_minim_iter=0
Ti      -0.00000000      -0.00000000       0.00000000 
Ti      -0.00000000       1.64657864       2.25735483 
