2
Lattice="2.991293831356969 -2.261271196748594e-16 1.5609762890343253e-16 -1.4956469156784837 2.5905364493631495 -5.670521824711934e-17 2.4788303469865084e-16 3.9136993701095035e-17 4.735281417788685" Properties=species:S:1:pos:R:3 energy=-3187.11083433 pbc="T T T" n_minim_iter=0
Ti      -0.00000000      -0.00000000       0.00000000 
Ti       0.00000000       1.72702430       2.36764071 
