2
Lattice="2.7509176233301504 -2.0795585913546548e-16 1.4355384075248274e-16 -1.3754588116650748 2.3823645466481658 -5.2148465849648455e-17 2.2796349911494266e-16 3.599199937094224e-17 4.354760795168491" Properties=species:S:1:pos:R:3 energy=-3187.06826699 pbc="T T T" n_minim_iter=0
Ti      -0.00000000      -0.00000000       0.00000000 
Ti       0.00000000       1.58824303       2.17738040 
