2
Lattice="2.697488182473827 -2.039168558653662e-16 1.4076567967519908e-16 -1.348744091236913 2.336093293534723 -5.1135617137556215e-17 2.235358993242162e-16 3.529294812150401e-17 4.270180859958644" Properties=species:S:1:pos:R:3 energy=-3186.84760046 pbc="T T T" n_minim_iter=0
Ti      -0.00000000      -0.00000000       0.00000000 
Ti       0.00000000       1.55739553       2.13509043 
