32
Lattice="8.0 0.0 0.0 0.0 8.0 0.0 0.0 0.0 8.0" Properties=species:S:1:pos:R:3:force:R:3 virial="-4.036272303593455 -0.0 -0.0 -0.0 -4.036681347135529 0.0 -0.0 0.0 -4.036681347135529" energy=-3513.37016631 pbc="T T T"
Al       0.01000000       0.00000000       0.00000000      -0.04617969       0.00000938      -0.00002000 
Al       4.00000000       0.00000000       0.00000000       0.00224031       0.00000938      -0.00002000 
Al       0.00000000       4.00000000       0.00000000      -0.00024969      -0.00001062      -0.00002000 
Al       4.00000000       4.00000000       0.00000000       0.00074031      -0.00001062      -0.00002000 
Al       0.00000000       0.00000000       4.00000000      -0.00024969       0.00000938       0.00002000 
Al       4.00000000       0.00000000       4.00000000       0.00074031       0.00000938       0.00001000 
Al       0.00000000       4.00000000       4.00000000       0.00080031      -0.00001062       0.00002000 
Al       4.00000000       4.00000000       4.00000000      -0.00108969      -0.00001062       0.00002000 
Al       2.00000000       2.00000000       0.00000000       0.00622031       0.00659938      -0.00001000 
Al       6.00000000       2.00000000       0.00000000       0.00605031      -0.00639062      -0.00002000 
Al       2.00000000       6.00000000       0.00000000       0.00622031      -0.00659063      -0.00002000 
Al       6.00000000       6.00000000       0.00000000       0.00604031       0.00638938      -0.00002000 
Al       2.00000000       2.00000000       4.00000000      -0.00006969       0.00010938       0.00002000 
Al       6.00000000       2.00000000       4.00000000      -0.00009969      -0.00012062       0.00002000 
Al       2.00000000       6.00000000       4.00000000      -0.00006969      -0.00011062       0.00002000 
Al       6.00000000       6.00000000       4.00000000      -0.00009969       0.00011938       0.00002000 
Al       2.00000000       0.00000000       2.00000000       0.00622031       0.00000938       0.00661000 
Al       6.00000000       0.00000000       2.00000000       0.00605031       0.00000938      -0.00638000 
Al       2.00000000       4.00000000       2.00000000      -0.00006969      -0.00001062       0.00012000 
Al       6.00000000       4.00000000       2.00000000      -0.00009969      -0.00001062      -0.00011000 
Al       2.00000000       0.00000000       6.00000000       0.00622031       0.00000938      -0.00661000 
Al       6.00000000       0.00000000       6.00000000       0.00605031       0.00000938       0.00638000 
Al       2.00000000       4.00000000       6.00000000      -0.00006969      -0.00001062      -0.00012000 
Al       6.00000000       4.00000000       6.00000000      -0.00009969      -0.00001062       0.00011000 
Al       0.00000000       2.00000000       2.00000000      -0.00091969      -0.00003062      -0.00002000 
Al       4.00000000       2.00000000       2.00000000      -0.00036969      -0.00001062       0.00000000 
Al       0.00000000       6.00000000       2.00000000      -0.00091969       0.00002938      -0.00002000 
Al       4.00000000       6.00000000       2.00000000      -0.00036969       0.00000938       0.00000000 
Al       0.00000000       2.00000000       6.00000000      -0.00091969      -0.00003062       0.00002000 
Al       4.00000000       2.00000000       6.00000000      -0.00035969      -0.00000062       0.00000000 
Al       0.00000000       6.00000000       6.00000000      -0.00091969       0.00002938       0.00002000 
Al       4.00000000       6.00000000       6.00000000      -0.00036969       0.00000938       0.00000000 
