32
Lattice="8.0 0.0 0.0 0.0 8.0 0.0 0.0 0.0 8.0" Properties=species:S:1:pos:R:3:force:R:3 virial="-4.028906324183452 0.0 0.0 0.0 -4.029305780767509 0.0 0.0 0.0 -4.029302585114836" energy=-3513.37213288 pbc="T T T"
Al       0.01000000       0.00000000       0.00000000      -0.04628031      -0.00001031       0.00000000 
Al       4.00000000       0.00000000       0.00000000       0.00224969      -0.00001031       0.00000000 
Al       0.00000000       4.00000000       0.00000000      -0.00026031       0.00000969       0.00000000 
Al       4.00000000       4.00000000       0.00000000       0.00074969       0.00000969       0.00000000 
Al       0.00000000       0.00000000       4.00000000      -0.00025031      -0.00001031       0.00000000 
Al       4.00000000       0.00000000       4.00000000       0.00074969      -0.00001031       0.00000000 
Al       0.00000000       4.00000000       4.00000000       0.00079969       0.00000969       0.00000000 
Al       4.00000000       4.00000000       4.00000000      -0.00108031       0.00000969       0.00000000 
Al       2.00000000       2.00000000       0.00000000       0.00620969       0.00660969       0.00000000 
Al       6.00000000       2.00000000       0.00000000       0.00605969      -0.00638031       0.00000000 
Al       2.00000000       6.00000000       0.00000000       0.00621969      -0.00661031       0.00000000 
Al       6.00000000       6.00000000       0.00000000       0.00605969       0.00637969       0.00000000 
Al       2.00000000       2.00000000       4.00000000      -0.00008031       0.00011969       0.00000000 
Al       6.00000000       2.00000000       4.00000000      -0.00009031      -0.00010031       0.00000000 
Al       2.00000000       6.00000000       4.00000000      -0.00008031      -0.00012031       0.00000000 
Al       6.00000000       6.00000000       4.00000000      -0.00009031       0.00010969       0.00000000 
Al       2.00000000       0.00000000       2.00000000       0.00620969      -0.00001031       0.00661000 
Al       6.00000000       0.00000000       2.00000000       0.00605969      -0.00001031      -0.00637000 
Al       2.00000000       4.00000000       2.00000000      -0.00008031       0.00000969       0.00013000 
Al       6.00000000       4.00000000       2.00000000      -0.00009031       0.00000969      -0.00010000 
Al       2.00000000       0.00000000       6.00000000       0.00621969      -0.00001031      -0.00661000 
Al       6.00000000       0.00000000       6.00000000       0.00605969      -0.00001031       0.00637000 
Al       2.00000000       4.00000000       6.00000000      -0.00008031       0.00000969      -0.00013000 
Al       6.00000000       4.00000000       6.00000000      -0.00009031       0.00000969       0.00010000 
Al       0.00000000       2.00000000       2.00000000      -0.00092031      -0.00002031      -0.00001000 
Al       4.00000000       2.00000000       2.00000000      -0.00035031       0.00000969       0.00001000 
Al       0.00000000       6.00000000       2.00000000      -0.00092031       0.00001969      -0.00001000 
Al       4.00000000       6.00000000       2.00000000      -0.00035031      -0.00001031       0.00001000 
Al       0.00000000       2.00000000       6.00000000      -0.00092031      -0.00002031       0.00001000 
Al       4.00000000       2.00000000       6.00000000      -0.00036031       0.00000969      -0.00001000 
Al       0.00000000       6.00000000       6.00000000      -0.00092031       0.00001969       0.00001000 
Al       4.00000000       6.00000000       6.00000000      -0.00035031      -0.00001031      -0.00001000 
