2
Lattice="3.133671456641067 1.3962485439503525e-11 2.5251440267021774e-11 -1.5668357283084415 2.713839090181455 -2.4254443814470837e-11 3.9732071706748603e-11 -2.1122725882544774e-11 4.6539949145137625" Properties=species:S:1:pos:R:3 stress="0.11214605832718218 2.28300380642008e-12 2.35173481263056e-12 2.28300380642008e-12 0.11214605828243371 -3.5210533669830314e-13 2.35173481263056e-12 -3.5210533669830314e-13 0.11246359923280576" pbc="T T T" n_minim_iter=0
Ti       0.00000000      -0.00000000       0.00000000 
Ti       0.00000000       1.80922606       2.32699746 
