2
Lattice="2.894432978743109 6.502659738811986e-13 -8.020657163018498e-13 -1.4472164893709907 2.5066524894776556 8.106963340588429e-13 -1.2736803574873379e-12 7.511853542620793e-13 4.564504181120791" Properties=species:S:1:pos:R:3 energy=-3187.27928182 pbc="T T T" n_minim_iter=0
Ti       0.00000000      -0.00000000       0.00000000 
Ti      -0.00000000       1.67110166       2.28225209 
