2
Lattice="2.7457325173672977 6.168587915269142e-13 -7.608598763519481e-13 -1.372866258683114 2.3778741123545433 7.690470992015973e-13 -1.2082454836468942e-12 7.125934747548091e-13 4.3300044077042985" Properties=species:S:1:pos:R:3 energy=-3187.03796269 pbc="T T T" n_minim_iter=0
Ti       0.00000000      -0.00000000       0.00000000 
Ti      -0.00000000       1.58524940       2.16500220 
