2
Lattice="2.8220415979597964 6.340024597244096e-13 -7.820056060458987e-13 -1.4110207989793484 2.4439597146959042 7.904203672461741e-13 -1.2418249024008877e-12 7.323977901973389e-13 4.450343389459957" Properties=species:S:1:pos:R:3 energy=-3187.2483928 pbc="T T T" n_minim_iter=0
Ti       0.00000000      -0.00000000       0.00000000 
Ti      -0.00000000       1.62930647       2.22517169 
