2
Lattice="2.9177761882637014 6.555102807917052e-13 -8.085342675526196e-13 -1.4588880941312825 2.5268683019310507 8.17234490071607e-13 -1.2839524168735603e-12 7.572435622918105e-13 4.6013162884454495" Properties=species:S:1:pos:R:3 energy=-3187.25535739 pbc="T T T" n_minim_iter=0
Ti       0.00000000      -0.00000000       0.00000000 
Ti      -0.00000000       1.68457886       2.30065814 
