2
Lattice="2.5565644163115944 3.4316188213084815e-11 -2.95432224520035e-11 -1.2782822081260778 2.214049741272887 6.751567468833817e-11 -4.652820484367262e-11 9.600847922313337e-11 4.280993034194571" Properties=species:S:1:pos:R:3 stress="-0.002451007292408646 -6.2222780641423785e-12 7.6359210735576e-12 -6.2222780641423785e-12 -0.0024510077726106285 -8.536207392458423e-12 7.6359210735576e-12 -8.536207392458423e-12 0.011135989089869534" pbc="T T T" n_minim_iter=0
Ti       0.00000000      -0.00000000      -0.00000000 
Ti      -0.00000000       1.47603316       2.14049652 
