2
Lattice="3.029248012153165 6.805536432237047e-13 -8.394238161902948e-13 -1.5146240060759928 2.6234057332384 8.484564252975121e-13 -1.3330050201101886e-12 7.861735814470681e-13 4.777106714396707" Properties=species:S:1:pos:R:3 energy=-3186.95822547 pbc="T T T" n_minim_iter=0
Ti       0.00000000      -0.00000000       0.00000000 
Ti      -0.00000000       1.74893715       2.38855336 
