2
Lattice="2.870707051142257 6.449356851749449e-13 -7.954911114463017e-13 -1.4353535255705694 2.486105233444224 8.040509832528593e-13 -1.2632398849767275e-12 7.450278203129665e-13 4.5270885295819925" Properties=species:S:1:pos:R:3 stress="-0.0052183182243308425 1.955636994569656e-12 -1.9526300860462644e-12 1.955636994569656e-12 -0.005218318527672913 -1.4190479653224953e-12 -1.9526300860462644e-12 -1.4190479653224953e-12 0.006747205097884765" pbc="T T T" n_minim_iter=2
Ti       0.00000000      -0.00000000       0.00000000 
Ti      -0.00000000       1.65740349       2.26354426 
