2
Lattice="2.692403783747725 6.048779092063841e-13 -7.460821463978666e-13 -1.3462018918733378 2.3316900742821742 7.541103536756526e-13 -1.184778448479813e-12 6.987531944821035e-13 4.245905301120002" Properties=species:S:1:pos:R:3 energy=-3186.80716199 pbc="T T T" n_minim_iter=0
Ti       0.00000000      -0.00000000       0.00000000 
Ti      -0.00000000       1.55446005       2.12295265 
