8
Lattice="5.75084787 0.0 0.0 -2.875423934999999 4.98038034871963 0.0 0.0 0.0 4.65528205" Properties=species:S:1:pos:R:3:tags:I:1 spacegroup="P 1" energy=-9783.02920465 unit_cell=conventional pbc="T T T" n_minim_iter=1
Ti       2.87542394       3.28996953       1.16382051        0 
Ti      -1.41148523       4.13517494       3.49146154        1 
Ti       1.41148523       4.13517494       3.49146154        2 
Ti       1.46393871       0.84520541       1.16382051        3 
Ti       4.28690916       0.84520541       1.16382051        4 
Ti       0.00000000       1.69041082       3.49146154        5 
Al      -0.00000288       3.32025523       1.16382051        6 
Al       2.87542681       1.66012512       3.49146154        7 
8
Lattice="5.644752718212706 -1.6412995081349826e-07 4.07986182370636e-15 -2.8223765012470583 4.888499169838509 -4.124514077421318e-15 3.3026273592558942e-15 -1.9485103371465088e-15 4.5691003755053945" Properties=species:S:1:pos:R:3:tags:I:1 spacegroup="P 1" stress="-0.0006036613920562102 6.048911525018778e-08 1.0540799756595755e-16 6.048911525018778e-08 -0.0006035914284323324 -3.8210173842109755e-17 1.0540799756595755e-16 -3.8210173842109755e-17 0.004006983543018376" unit_cell=conventional pbc="T T T" n_minim_iter=2
Ti       2.82237581       3.23834857       1.14227509        0 
Ti      -1.39330448       4.06342405       3.42682528        1 
Ti       1.39330423       4.06342343       3.42682528        2 
Ti       1.42907199       0.82507558       1.14227509        3 
Ti       4.21568070       0.82507495       1.14227509        4 
Ti       0.00000041       1.65015044       3.42682528        5 
Al      -0.00000187       3.25900042       1.14227509        6 
Al       2.82237808       1.62949859       3.42682528        7 
8
Lattice="5.645586117912178 -2.771796290684467e-07 3.892598367196524e-15 -2.8227932990006877 4.889220858436218 -3.97381806835596e-15 3.1510385453248453e-15 -1.8951709727701937e-15 4.562833924689448" Properties=species:S:1:pos:R:3:tags:I:1 spacegroup="P 1" stress="-0.001196469133802552 3.0150057690311765e-08 4.802340361585626e-16 3.0150057690311765e-08 -0.0011964342559017708 -1.9436047417991367e-16 4.802340361585626e-16 -1.9436047417991367e-16 0.00216064319484849" unit_cell=conventional pbc="T T T" n_minim_iter=3
Ti       2.82279227       3.24125297       1.14070848        0 
Ti      -1.39561169       4.06523717       3.42212544        1 
Ti       1.39561128       4.06523630       3.42212544        2 
Ti       1.42718154       0.82398428       1.14070848        3 
Ti       4.21840450       0.82398341       1.14070848        4 
Ti       0.00000055       1.64796761       3.42212544        5 
Al      -0.00000130       3.25948114       1.14070848        6 
Al       2.82279412       1.62973944       3.42212544        7 
8
Lattice="5.649427666983292 -4.0147259204746957e-07 2.285217438520305e-15 -2.824714181177108 4.892547675152474 -2.610076465997255e-15 1.8498718732218096e-15 -1.3716776193801015e-15 4.555522205220336" Properties=species:S:1:pos:R:3:tags:I:1 spacegroup="P 1" stress="-0.0006731351980726563 -8.509405864722705e-09 2.3296737537393284e-16 -8.509405864722705e-09 -0.0006731450423694135 -1.597917036540442e-16 2.3296737537393284e-16 -1.597917036540442e-16 0.0006661953522025255" unit_cell=conventional pbc="T T T" n_minim_iter=4
Ti       2.82471300       3.24524219       1.13888055        0 
Ti      -1.39810622       4.06889518       3.41664165        1 
Ti       1.39810568       4.06889431       3.41664165        2 
Ti       1.42660781       0.82365297       1.13888055        3 
Ti       4.22281970       0.82365209       1.13888055        4 
Ti       0.00000049       1.64730509       3.41664165        5 
Al      -0.00000073       3.26169861       1.13888055        6 
Al       2.82471422       1.63084867       3.41664165        7 
