8
Lattice="5.415272920993456 -3.800840392624205e-06 4.277205351121129e-12 -2.707639752121062 4.689762016314919 -5.101713487139453e-12 3.435271348399114e-12 -2.7480065561075496e-12 4.338251681346547" Properties=species:S:1:pos:R:3:tags:I:1 spacegroup="P 1" energy=-9782.32596155 unit_cell=conventional pbc="T T T" n_minim_iter=0
Ti       2.70763395       3.10852954       1.08456292        0 
Ti      -1.33825397       3.89914677       3.25368876        1 
Ti       1.33824858       3.89914455       3.25368876        2 
Ti       1.36938459       0.79061367       1.08456292        3 
Ti       4.04588714       0.79061145       1.08456292        4 
Ti      -0.00000078       1.58122868       3.25368876        5 
Al      -0.00000260       3.12650698       1.08456292        6 
Al       2.70763577       1.56325124       3.25368876        7 
