8
Lattice="6.0702281856461715 4.3119610177758206e-05 2.520104530372895e-07 -3.0350766561362663 5.256901282287225 2.8079380476262914e-06 8.638838667001473e-07 1.2608976418502628e-05 4.932317923094026" Properties=species:S:1:pos:R:3:tags:I:1 spacegroup="P 1" stress="0.1727192577046387 2.2139794406588e-06 -7.91615682209652e-08 2.2139794406588e-06 0.17271633627032526 1.2959198012041997e-07 -7.91615682209652e-08 1.2959198012041997e-07 0.1727304920856816" unit_cell=conventional pbc="T T T" n_minim_iter=0
Ti       3.03517183       3.53239192       1.23305929        0 
Ti      -1.54157255       4.39461468       3.69923672        1 
Ti       1.54166770       4.39469190       3.69922257        2 
Ti       1.49348470       0.86226511       1.23309842        3 
Ti       4.57672494       0.86234233       1.23308426        4 
Ti      -0.00001944       1.72456509       3.69926169        5 
Al       0.00003414       3.50462390       1.23308159        6 
Al       3.03511825       1.75233311       3.69923939        7 
