8
Lattice="5.5165163432350734 -3.871900539427084e-06 4.357171571419814e-12 -2.758261524781763 4.777441356388396 -5.197094632331939e-12 3.4994968514743493e-12 -2.7993830226572156e-12 4.419359217969909" Properties=species:S:1:pos:R:3:tags:I:1 spacegroup="P 1" energy=-9782.90361297 unit_cell=conventional pbc="T T T" n_minim_iter=0
Ti       2.75825561       3.16664631       1.10483980        0 
Ti      -1.36327383       3.97204484       3.31451941        1 
Ti       1.36326834       3.97204258       3.31451941        2 
Ti       1.39498648       0.80539490       1.10483980        3 
Ti       4.12152865       0.80539265       1.10483980        4 
Ti      -0.00000079       1.61079118       3.31451941        5 
Al      -0.00000265       3.18495985       1.10483980        6 
Al       2.75825747       1.59247763       3.31451941        7 
