8
Lattice="5.984370334135437 0.0004051558482752067 -0.0013672813376735956 -2.991835326964451 5.181783711710594 0.0015495264647037525 -0.0011177855660610809 0.0008157787400463125 4.872414543334342" Properties=species:S:1:pos:R:3:tags:I:1 spacegroup="P 1" stress="0.15176666066176409 3.037637736300376e-05 -7.325705474356106e-05 3.037637736300376e-05 0.15171188050843812 5.3466961430715456e-05 -7.325705474356106e-05 5.3466961430715456e-05 0.15176252804927484" unit_cell=conventional pbc="T T T" n_minim_iter=0
Ti       2.99213818       3.45988409       1.21799833        0 
Ti      -1.50081875       4.32124441       3.65537857        1 
Ti       1.49972067       4.32144353       3.65468712        2 
Ti       1.49169655       0.86156112       1.21790966        3 
Ti       4.49223598       0.86176023       1.21721822        4 
Ti      -0.00072096       1.72312056       3.65459846        5 
Al      -0.00004780       3.45486248       1.21868099        6 
Al       2.99146502       1.72814217       3.65391580        7 
