8
Lattice="5.649427666983292 -4.0147259204746957e-07 2.285217438520305e-15 -2.824714181177108 4.892547675152474 -2.610076465997255e-15 1.8498718732218096e-15 -1.3716776193801015e-15 4.555522205220336" Properties=species:S:1:pos:R:3:tags:I:1 spacegroup="P 1" stress="-0.0006731351980726563 -8.509405864722705e-09 2.3296737537393284e-16 -8.509405864722705e-09 -0.0006731450423694135 -1.597917036540442e-16 2.3296737537393284e-16 -1.597917036540442e-16 0.0006661953522025255" unit_cell=conventional pbc="T T T" n_minim_iter=4
Ti       2.82471300       3.24524219       1.13888055        0 
Ti      -1.39810622       4.06889518       3.41664165        1 
Ti       1.39810568       4.06889431       3.41664165        2 
Ti       1.42660781       0.82365297       1.13888055        3 
Ti       4.22281970       0.82365209       1.13888055        4 
Ti       0.00000049       1.64730509       3.41664165        5 
Al      -0.00000073       3.26169861       1.13888055        6 
Al       2.82471422       1.63084867       3.41664165        7 
