8
Lattice="5.860763650384688 0.0004966876951517387 0.0005353779700475154 -2.9299516647497374 5.074897270401394 -0.0018810613798980347 0.0004344149326018435 -0.0015114316986099886 4.762418172404501" Properties=species:S:1:pos:R:3:tags:I:1 spacegroup="P 1" stress="0.10656935540005505 4.6562279626955365e-05 3.544800211747759e-05 4.6562279626955365e-05 0.10652331876307948 -0.00012338043551102823 3.544800211747759e-05 -0.00012338043551102823 0.10655746736668252" unit_cell=conventional pbc="T T T" n_minim_iter=0
Ti       2.93077592       3.37590289       1.18979869        0 
Ti      -1.45810192       4.22433361       3.57033689        1 
Ti       1.45946699       4.22457846       3.57060347        2 
Ti       1.47177941       0.84930406       1.19046902        3 
Ti       4.38934832       0.84954892       1.19073560        4 
Ti       0.00047048       1.69797964       3.57127380        5 
Al       0.00039383       3.38305274       1.18952895        6 
Al       2.93085257       1.69082979       3.57154354        7 
