8
Lattice="5.2405183566960805 -2.1098099305257507e-06 -1.4522533006158134e-07 -2.6202610055228446 4.538421947377018 1.7362785062872768e-07 -1.171359004806409e-07 9.407961283234557e-08 4.235343506453717" Properties=species:S:1:pos:R:3:tags:I:1 spacegroup="P 1" stress="-0.10340819345355197 -4.414350647407464e-07 -3.0190420333690075e-08 -4.414350647407464e-07 -0.10340842114123225 2.424813458697911e-08 -3.0190420333690075e-08 2.424813458697911e-08 -0.1034081082229763" unit_cell=conventional pbc="T T T" n_minim_iter=0
Ti       2.62025766       3.01059648       1.05883587        0 
Ti      -1.29712663       3.77450982       3.17650775        1 
Ti       1.29712352       3.77450851       3.17650768        2 
Ti       1.32313372       0.76391142       1.05883586        3 
Ti       3.91738387       0.76391012       1.05883578        4 
Ti      -0.00000043       1.52782345       3.17650766        5 
Al      -0.00000180       3.02561427       1.05883594        6 
Al       2.62025903       1.51280566       3.17650759        7 
