8
Lattice="5.900110279462119 0.0004066543733216018 0.002508124590213971 -2.9497039926347304 5.1121573187064575 -0.00024373786125148796 0.002036700534161368 0.0009515014166163449 4.800583127411263" Properties=species:S:1:pos:R:3:tags:I:1 spacegroup="P 1" stress="0.12322877767176472 3.540697507807054e-05 0.0001546402777474837 3.540697507807054e-05 0.12350291197186569 7.218872485178628e-05 0.0001546402777474837 7.218872485178628e-05 0.1233508969463749" unit_cell=conventional pbc="T T T" n_minim_iter=0
Ti       2.95079718       3.40384196       1.20207445        0 
Ti      -1.46901919       4.25849345       3.60065444        1 
Ti       1.47265619       4.25869345       3.60190523        2 
Ti       1.47978680       0.85482203       1.20094228        3 
Ti       4.42146218       0.85502202       1.20219307        4 
Ti       0.00164581       1.70967352       3.60077307        5 
Al       0.00074198       3.40847897       1.20081931        6 
Al       2.95170101       1.70503651       3.60202821        7 
