8
Lattice="5.565773559764593 -3.906472909267917e-06 4.396076947602173e-12 -2.7828901629870733 4.820099339924923 -5.243499718386494e-12 3.530744012441946e-12 -2.824378836521736e-12 4.458819870377514" Properties=species:S:1:pos:R:3:tags:I:1 spacegroup="P 1" stress="-0.0477948082544677 -5.433467720172238e-07 4.860605782674034e-13 -5.433467720172238e-07 -0.04779543583015768 -3.8880368344958046e-13 4.860605782674034e-13 -3.8880368344958046e-13 -0.047796093910122316" unit_cell=conventional pbc="T T T" n_minim_iter=0
Ti       2.78288420       3.19492143       1.11470497        0 
Ti      -1.37544657       4.00751140       3.34411490        1 
Ti       1.37544103       4.00750912       3.34411490        2 
Ti       1.40744237       0.81258631       1.11470497        3 
Ti       4.15832996       0.81258403       1.11470497        4 
Ti      -0.00000080       1.62517400       3.34411490        5 
Al      -0.00000267       3.21339850       1.11470497        6 
Al       2.78288607       1.60669694       3.34411490        7 
