8
Lattice="5.608996622202515 -1.38518571386631e-07 -1.5106064729532603e-13 -2.8044984310618575 4.857533494929231 1.8053916259556499e-13 -1.2179660749148802e-13 9.776488564947778e-14 4.505897501509942" Properties=species:S:1:pos:R:3:tags:I:1 spacegroup="P 1" stress="-0.024248973191518686 2.3979750800766674e-08 -1.546280626438654e-14 2.3979750800766674e-08 -0.024248945505577334 1.2402064199504581e-14 -1.546280626438654e-14 1.2402064199504581e-14 -0.024066728266429596" unit_cell=conventional pbc="T T T" n_minim_iter=0
Ti       2.80449781       3.22053824       1.12647438        0 
Ti      -1.38681916       4.03903598       3.37942313        1 
Ti       1.38681903       4.03903547       3.37942313        2 
Ti       1.41767917       0.81849789       1.12647438        3 
Ti       4.19131735       0.81849737       1.12647438        4 
Ti       0.00000038       1.63699512       3.37942313        5 
Al      -0.00000058       3.23835591       1.12647438        6 
Al       2.80449877       1.61917745       3.37942313        7 
