8
Lattice="5.46636341866105 -3.836699495211899e-06 4.317558728172195e-12 -2.733185032009753 4.734007667245502 -5.149845702231507e-12 3.4676814827309476e-12 -2.773932677393343e-12 4.379181001187108" Properties=species:S:1:pos:R:3:tags:I:1 spacegroup="P 1" energy=-9782.64773339 unit_cell=conventional pbc="T T T" n_minim_iter=0
Ti       2.73317917       3.13785702       1.09479525        0 
Ti      -1.35087975       3.93593334       3.28438575        1 
Ti       1.35087431       3.93593110       3.28438575        2 
Ti       1.38230408       0.79807273       1.09479525        3 
Ti       4.08405814       0.79807049       1.09479525        4 
Ti      -0.00000078       1.59614681       3.28438575        5 
Al      -0.00000262       3.15600407       1.09479525        6 
Al       2.73318101       1.57799976       3.28438575        7 
