8
Lattice="6.024891982173375 0.000806913568018814 0.003424258289447943 -3.011747114019512 5.219962960968437 0.0021438995533540786 0.0027829848692572314 0.0036276908420932743 4.904151639835563" Properties=species:S:1:pos:R:3:tags:I:1 spacegroup="P 1" stress="0.1629967679008504 5.344644904115441e-05 0.00016392620326376796 5.344644904115441e-05 0.16320063634897033 0.00021328462892112292 0.00016392620326376796 0.00021328462892112292 0.16312716545131759" unit_cell=conventional pbc="T T T" n_minim_iter=0
Ti       3.01360657       3.49548550       1.23032884        0 
Ti      -1.51560034       4.35978996       3.68046409        1 
Ti       1.52093557       4.36018982       3.68219791        2 
Ti       1.49499229       0.86420775       1.22752189        3 
Ti       4.53152820       0.86460761       1.22925571        4 
Ti       0.00232128       1.72891207       3.67939096        5 
Al       0.00115930       3.48115022       1.22860867        6 
Al       3.01476855       1.74324734       3.68111113        7 
