8
Lattice="5.942851086019119 5.948969968905672e-06 6.400159228345369e-06 -2.971421418443206 5.146643451387697 -6.0007367413669755e-06 3.684037175432847e-07 -6.968399473250884e-07 4.837225728874743" Properties=species:S:1:pos:R:3:tags:I:1 spacegroup="P 1" stress="0.1383354814007885 3.087779406851842e-07 1.2996670960504666e-07 3.087779406851842e-07 0.13833427387387587 -1.3689505196498624e-07 1.2996670960504666e-07 -1.3689505196498624e-07 0.1383363164643975" unit_cell=conventional pbc="T T T" n_minim_iter=0
Ti       2.97142548       3.43198779       1.20930687        0 
Ti      -1.48648344       4.28931755       3.62791806        1 
Ti       1.48648290       4.28931258       3.62791396        2 
Ti       1.48494714       0.85733612       1.20931217        3 
Ti       4.45791348       0.85733115       1.20930807        4 
Ti       0.00000456       1.71466091       3.62791926        5 
Al       0.00000174       3.43109915       1.20930495        6 
Al       2.97142830       1.71554955       3.62792117        7 
