8
Lattice="5.819384310737842 2.5454930100359345e-05 5.045710250961136e-05 -2.9096700946927467 5.039701665223028 -0.0001775198144717787 4.0940960905445156e-05 -0.00014246784512937253 4.722667721980778" Properties=species:S:1:pos:R:3:tags:I:1 spacegroup="P 1" stress="0.08808018695246651 2.4837183123231087e-06 3.5914151528356123e-06 2.4837183123231087e-06 0.08807777389441088 -1.251233346428206e-05 3.5914151528356123e-06 -1.251233346428206e-05 0.08808103774855229" unit_cell=conventional pbc="T T T" n_minim_iter=0
Ti       2.90971591       3.34970737       1.18059095        0 
Ti      -1.44607124       4.19461163       3.54186148        1 
Ti       1.44616515       4.19462053       3.54188643        2 
Ti       1.46359001       0.84496412       1.18065423        3 
Ti       4.35582640       0.84497302       1.18067918        4 
Ti       0.00003925       1.68987728       3.54194971        5 
Al       0.00002342       3.35977442       1.18056548        6 
Al       2.90973174       1.67981023       3.54197518        7 
