8
Lattice="5.776854092494238 0.0020272992054256637 -1.2926966708432895e-10 -2.88667135363404 5.003920317801298 9.121384092525057e-11 -1.0454449272137726e-10 2.4820617453983037e-11 4.681622977643354" Properties=species:S:1:pos:R:3:tags:I:1 spacegroup="P 1" stress="0.06788929461913493 0.00021818497154388317 -9.876430803985523e-12 0.00021818497154388317 0.06814176569624827 2.339747217721302e-12 -9.876430803985523e-12 2.339747217721302e-12 0.06801960019046974" unit_cell=conventional pbc="T T T" n_minim_iter=0
Ti       2.88959161       3.32451433       1.17040574        0 
Ti      -1.43139171       4.16371350       3.51121723        1 
Ti       1.43431561       4.16471904       3.51121723        2 
Ti       1.45586713       0.84122858       1.17040574        3 
Ti       4.32157444       0.84223412       1.17040574        4 
Ti       0.00059113       1.68143329       3.51121723        5 
Al       0.00116917       3.33662339       1.17040574        6 
Al       2.88901357       1.66932422       3.51121723        7 
