8
Lattice="5.736452352070988 1.4279676520719988e-06 -8.883726151430033e-14 -2.8682249393792305 4.967914181787072 6.358497903566218e-14 -7.16338308295697e-14 1.784475286135357e-14 4.63926766273785" Properties=species:S:1:pos:R:3:tags:I:1 spacegroup="P 1" stress="0.04644975674177884 1.9699892197597387e-07 -7.281088019879175e-15 1.9699892197597387e-07 0.04644998469549411 1.777561882739602e-15 -7.281088019879175e-15 1.777561882739602e-15 0.04645255870784228" unit_cell=conventional pbc="T T T" n_minim_iter=0
Ti       2.86822652       3.29655847       1.15981692        0 
Ti      -1.42078801       4.13223608       3.47945075        1 
Ti       1.42079012       4.13223627       3.47945075        2 
Ti       1.44743729       0.83567934       1.15981692        3 
Ti       4.28901542       0.83567953       1.15981692        4 
Ti       0.00000089       1.67135714       3.47945075        5 
Al       0.00000032       3.31194355       1.15981692        6 
Al       2.86822709       1.65597206       3.47945075        7 
