8
Lattice="5.1258452187191335 -3.295405067801676e-06 -1.2066996235811163e-06 -2.5629254633012977 4.439113036224402 4.4171532025794936e-07 -9.871322307443796e-07 -1.4247315408256974e-07 4.1502800385590595" Properties=species:S:1:pos:R:3:tags:I:1 spacegroup="P 1" stress="0.019082204438294875 -5.0954726398001e-07 -2.3426009422694737e-07 -5.0954726398001e-07 0.019081975335017376 -5.5680428720826934e-08 -2.3426009422694737e-07 -5.5680428720826934e-08 0.0190817862843123" unit_cell=conventional pbc="T T T" n_minim_iter=0
Ti       2.56291937       2.94854956       1.03756915        0 
Ti      -1.27206055       3.69383153       3.11270980        1 
Ti       1.27205730       3.69383034       3.11270997        2 
Ti       1.29086147       0.74527925       1.03756930        3 
Ti       3.83497931       0.74527807       1.03756947        4 
Ti      -0.00000060       1.49056004       3.11271012        5 
Al      -0.00000279       2.95940733       1.03757023        6 
Al       2.56292155       1.47970227       3.11270905        7 
