8
Lattice="5.183125459710039 7.961868970361407e-05 7.50097022032735e-06 -2.591493778075487 4.488714223767398 -8.96792967607297e-06 6.062601521694796e-06 -4.869327356547726e-06 4.194322709665848" Properties=species:S:1:pos:R:3:tags:I:1 spacegroup="P 1" stress="-0.06046896256635003 2.2985850469802626e-05 1.6587440037418083e-06 2.2985850469802626e-05 -0.06045700442812286 -1.332264125420826e-06 1.6587440037418083e-06 -1.332264125420826e-06 -0.06046652116219877" unit_cell=conventional pbc="T T T" n_minim_iter=0
Ti       2.59160962       2.97948270       1.04858096        0 
Ti      -1.28441049       3.73407571       3.14573583        1 
Ti       1.28453451       3.73411483       3.14573955        2 
Ti       1.30710324       0.75467415       1.04858169        3 
Ti       3.87604824       0.75471327       1.04858541        4 
Ti       0.00002813       1.50930628       3.14574028        5 
Al       0.00004712       2.99250167       1.04857720        6 
Al       2.59159062       1.49628731       3.14574404        7 
