8
Lattice="5.29803588677544 0.00013992349138395156 -1.798456611079408e-10 -2.648896766089603 4.588303663205894 2.1454022609646216e-10 -1.4409117718930596e-10 1.1528836795718707e-10 4.273246517090006" Properties=species:S:1:pos:R:3:tags:I:1 spacegroup="P 1" stress="-0.12134441902154397 3.1752341674664585e-05 -3.5319194654816045e-11 3.1752341674664585e-05 -0.12130774574956174 2.826044323036792e-11 -3.5319194654816045e-11 2.826044323036792e-11 -0.12132425668135809" unit_cell=conventional pbc="T T T" n_minim_iter=0
Ti       2.64909791       3.04258160       1.06831163        0 
Ti      -1.31020216       3.81540797       3.20493489        1 
Ti       1.31040398       3.81547690       3.20493489        2 
Ti       1.33873514       0.77296669       1.06831163        3 
Ti       3.95934128       0.77303562       1.06831163        4 
Ti       0.00004121       1.54586199       3.20493489        5 
Al       0.00008038       3.05891598       1.06831163        6 
Al       2.64905874       1.52952760       3.20493489        7 
