 +-------------------------------------------------+
 |                                                 |
 |      CCC   AA    SSS  TTTTT  EEEEE  PPPP        |
 |     C     A  A  S       T    E      P   P       |
 |     C     AAAA   SS     T    EEE    PPPP        |
 |     C     A  A     S    T    E      P           |
 |      CCC  A  A  SSS     T    EEEEE  P           |
 |                                                 |
 +-------------------------------------------------+
 |                                                 |
 | Welcome to Academic Release CASTEP version 17.21|          
 | Ab Initio Total Energy Program                  |
 |                                                 |
 | Authors:                                        |
 | M. Segall, M. Probert, C. Pickard, P. Hasnip,   |
 | S. Clark, K. Refson, J. R. Yates, M. Payne      |
 |                                                 |
 | Contributors:                                   |
 | P. Lindan, P. Haynes, J. White, V. Milman,      |
 | N. Govind, M. Gibson, P. Tulip, V. Cocula,      |
 | B. Montanari, D. Quigley, M. Glover,            |
 | L. Bernasconi, A. Perlov, M. Plummer,           |
 | E. McNellis, J. Meyer, J. Gale, D. Jochym       |
 | J. Aarons, B. Walker, R. Gillen, D. Jones       |
 | T. Green, I. J. Bush, C. J. Armstrong,          |
 | E. J. Higgins, E. L. Brown, M. S. McFly,        |
 | J. Wilkins, B-C. Shih, P. J. P. Byrne           |
 |                                                 |
 | Copyright (c) 2000 - 2017                       |
 |                                                 |
 |     Distributed under the terms of an           |
 |     Agreement between the United Kingdom        |
 |     Car-Parrinello (UKCP) Consortium,           |
 |     Daresbury Laboratory and Accelrys, Inc.     |
 |                                                 |
 | Please cite                                     |
 |                                                 |
 |     "First principles methods using CASTEP"     |
 |                                                 |
 |         Zeitschrift fuer Kristallographie       |
 |           220(5-6) pp. 567-570 (2005)           |
 |                                                 |
 | S. J. Clark, M. D. Segall, C. J. Pickard,       |
 | P. J. Hasnip, M. J. Probert, K. Refson,         |
 | M. C. Payne                                     |
 |                                                 |
 |       in all publications arising from          |
 |              your use of CASTEP                 |
 |                                                 |
 +-------------------------------------------------+
 
 
 Compiled for linux_x86_64_ifort17 on Fri, 08 Dec 2017 17:04:03 +0000
 from code version 
 056e886bd5a1+ Castep172_branch Mon, 15 May 2017 14:45:35 +0100
 Compiler: Intel Fortran 17.0.4.196; Optimisation: fast
 MATHLIBS: Intel MKL(2017.0.3) (LAPACK version 3.7.0)
 FFT Lib : mkl
 Fundamental constants values: CODATA 2010
 
 Run started: Tue, 30 Jun 2020 01:04:09 +0100
 
 Atomic calculation performed for Al: 1s2 2s2 2p6 3s2 3p1
 
 Converged in 55 iterations to an ae energy of -6578.725 eV
 
   ============================================================                
   | Pseudopotential Report - Date of generation 30-06-2020   |                
   ------------------------------------------------------------                
   | Element: Al Ionic charge:  3.00 Level of theory: LDA     |                
   | Atomic Solver: Koelling-Harmon                           |                
   |                                                          |                
   |               Reference Electronic Structure             |                
   |         Orbital         Occupation         Energy        |                
   |            3s              2.000           -0.288        |                
   |            3p              1.000           -0.102        |                
   |                                                          |                
   |                 Pseudopotential Definition               |                
   |        Beta     l      e      Rc     scheme   norm       |                
   |          1      0   -0.288   2.192     qc      0         |                
   |          2      0    0.250   2.192     qc      0         |                
   |          3      1   -0.102   2.192     qc      0         |                
   |          4      1    0.250   2.192     qc      0         |                
   |          5      2    0.000   2.000     qc      0         |                
   |          6      2    0.250   2.000     qc      0         |                
   |         loc     3    0.000   2.192     pn      0         |                
   |                                                          |                
   | Augmentation charge Rinner = 1.398                       |                
   | Partial core correction Rc = 1.398                       |                
   ------------------------------------------------------------                
   | "3|2.2|2.2|1.4|4|5|5|30:31:32U2U2"                       |                
   ------------------------------------------------------------                
   |      Author: Chris J. Pickard, Cambridge University      |                
   ============================================================                
 
 Pseudo atomic calculation performed for Al 3s2 3p1
 
 Converged in 18 iterations to a total energy of -105.5954 eV
 
 Calculation parallelised over 32 processes.
 Data is distributed by k-point(32-way)

 ************************************ Title ************************************
 

 ***************************** General Parameters ******************************
  
 output verbosity                               : normal  (1)
 write checkpoint data to                       : castep.check
 type of calculation                            : single point energy
 stress calculation                             : on
 density difference calculation                 : off
 electron localisation func (ELF) calculation   : off
 Hirshfeld analysis                             : off
 unlimited duration calculation
 timing information                             : on
 memory usage estimate                          : on
 write final potential to formatted file        : off
 write final density to formatted file          : off
 write BibTeX reference list                    : on
 write OTFG pseudopotential files               : on
 write electrostatic potential file             : on
 write bands file                               : on
 checkpoint writing                             : off
  
 output         length unit                     : A
 output           mass unit                     : amu
 output           time unit                     : ps
 output         charge unit                     : e
 output           spin unit                     : hbar/2
 output         energy unit                     : eV
 output          force unit                     : eV/A
 output       velocity unit                     : A/ps
 output       pressure unit                     : GPa
 output     inv_length unit                     : 1/A
 output      frequency unit                     : cm-1
 output force constant unit                     : eV/A**2
 output         volume unit                     : A**3
 output   IR intensity unit                     : (D/A)**2/amu
 output         dipole unit                     : D
 output         efield unit                     : eV/A/e
 output        entropy unit                     : J/mol/K
  
 wavefunctions paging                           : none
 random number generator seed                   : randomised (10409661)
 data distribution                              : optimal for this architecture
 optimization strategy                          : balance speed and memory

 *********************** Exchange-Correlation Parameters ***********************
  
 using functional                               : Local Density Approximation
 relativistic treatment                         : Koelling-Harmon
 DFT+D: Semi-empirical dispersion correction    : off

 ************************* Pseudopotential Parameters **************************
  
 pseudopotential representation                 : reciprocal space
 <beta|phi> representation                      : reciprocal space
 spin-orbit coupling                            : off

 **************************** Basis Set Parameters *****************************
  
 plane wave basis set cut-off                   :   700.0000   eV
 size of standard grid                          :     1.7500
 size of   fine   grid                          :     2.0000
 size of   fine   gmax                          :    27.1093   1/A
 finite basis set correction                    : automatic
 number of sample energies                      :          3
           sample  spacing                      :     5.0000   eV

 **************************** Electronic Parameters ****************************
  
 number of  electrons                           :  12.00    
 net charge of system                           :  0.000    
 treating system as non-spin-polarized
 number of bands                                :         10

 ********************* Electronic Minimization Parameters **********************
  
 Method: Treating system as metallic with density mixing treatment of electrons,
         and number of  SD  steps               :          1
         and number of  CG  steps               :          4
  
 total energy / atom convergence tol.           : 0.1000E-06   eV
 eigen-energy convergence tolerance             : 0.6667E-07   eV
 max force / atom convergence tol.              : 0.1000E-02   eV/A
 convergence tolerance window                   :          3   cycles
 max. number of SCF cycles                      :         30
 number of fixed-spin iterations                :         10
 smearing scheme                                : Gaussian
 smearing width                                 : 0.1000       eV
 Fermi energy convergence tolerance             : 0.2721E-13   eV
 periodic dipole correction                     : NONE

 ************************** Density Mixing Parameters **************************
  
 density-mixing scheme                          : Pulay
 max. length of mixing history                  :         20
 charge density mixing amplitude                : 0.8000    
 cut-off energy for mixing                      :  700.0       eV

 *********************** Population Analysis Parameters ************************
  
 Population analysis with cutoff                :  3.000       A

 *******************************************************************************
  
 
                           -------------------------------
                                      Unit Cell
                           -------------------------------
        Real Lattice(A)                      Reciprocal Lattice(1/A)
   4.0000000   0.0000000   0.0000000        1.5707963   0.0000000   0.0000000
   0.0000000   4.0000000   0.0000000        0.0000000   1.5707963   0.0000000
   0.0000000   0.0000000   4.0000000        0.0000000   0.0000000   1.5707963
 
                       Lattice parameters(A)       Cell Angles
                    a =    4.000000          alpha =   90.000000
                    b =    4.000000          beta  =   90.000000
                    c =    4.000000          gamma =   90.000000
 
                       Current cell volume =   64.000000       A**3
                                   density =    1.686346   AMU/A**3
                                           =    2.800244     g/cm^3
 
                           -------------------------------
                                     Cell Contents
                           -------------------------------
                         Total number of ions in cell =    4
                      Total number of species in cell =    1
                        Max number of any one species =    4
 
            xxxxxxxxxxxxxxxxxxxxxxxxxxxxxxxxxxxxxxxxxxxxxxxxxxxxxxxxxxxx
            x  Element    Atom        Fractional coordinates of atoms  x
            x            Number           u          v          w      x
            x----------------------------------------------------------x
            x  Al           1         0.000000   0.000000   0.000000   x 
            x  Al           2         0.500000   0.500000   0.000000   x 
            x  Al           3         0.500000   0.000000   0.500000   x 
            x  Al           4         0.000000   0.500000   0.500000   x 
            xxxxxxxxxxxxxxxxxxxxxxxxxxxxxxxxxxxxxxxxxxxxxxxxxxxxxxxxxxxx
 
 
                         No user defined ionic velocities
 
                           -------------------------------
                                   Details of Species
                           -------------------------------
 
                               Mass of species in AMU
                                    Al   26.9815400
 
                          Electric Quadrupole Moment (Barn)
                                    Al    0.1466000 Isotope 27
 
                          Files used for pseudopotentials:
                                    Al 3|2.2|2.2|1.4|4|5|5|30:31:32U2U2
 
                           -------------------------------
                              k-Points For BZ Sampling
                           -------------------------------
                       MP grid size for SCF calculation is 13 13 13
                            with an offset of   0.000  0.000  0.000
                       Number of kpoints used =          1099
 
                           -------------------------------
                               Symmetry and Constraints
                           -------------------------------
 
                      Cell is a supercell containing 4 primitive cells
                      Maximum deviation from symmetry =  0.00000         ANG
 
                      Number of symmetry operations   =           1
                      Number of ionic constraints     =           3
                      Point group of crystal =     1: C1, 1, 1
                      Space group of crystal =   225: Fm-3m, -F 4 2 3
 
             Set iprint > 1 for details on symmetry rotations/translations
 
                         Centre of mass is constrained
             Set iprint > 1 for details of linear ionic constraints
 
                         Number of cell constraints= 0
                         Cell constraints are:  1 2 3 4 5 6
 
                         External pressure/stress (GPa)
                          0.00000   0.00000   0.00000
                                    0.00000   0.00000
                                              0.00000
  
+---------------- MEMORY AND SCRATCH DISK ESTIMATES PER PROCESS --------------+
|                                                     Memory          Disk    |
| Baseline code, static data and system overhead      388.0 MB         0.0 MB |
| BLAS internal memory storage                          0.0 MB         0.0 MB |
| Model and support data                               57.0 MB        62.7 MB |
| Electronic energy minimisation requirements          41.1 MB         0.0 MB |
| Force calculation requirements                        8.3 MB         0.0 MB |
| Stress calculation requirements                       9.0 MB         0.0 MB |
|                                               ----------------------------- |
| Approx. total storage required per process          486.1 MB        62.7 MB |
|                                                                             |
| Requirements will fluctuate during execution and may exceed these estimates |
+-----------------------------------------------------------------------------+
Calculating finite basis set correction with  3 cut-off energies.
Calculating total energy with cut-off of  690.000 eV.
------------------------------------------------------------------------ <-- SCF
SCF loop      Energy           Fermi           Energy gain       Timer   <-- SCF
                               energy          per atom          (sec)   <-- SCF
------------------------------------------------------------------------ <-- SCF
Initial   8.61182976E+001  0.00000000E+000                         7.68  <-- SCF
      1  -4.03686256E+002  8.41492204E+000   1.22451138E+002      11.09  <-- SCF
          Max force change        1.383E-001                             <-- SCF
      2  -4.37631014E+002  5.62956799E+000   8.48618965E+000      14.79  <-- SCF
          Max force change        1.448E-001                             <-- SCF
      3  -4.39256355E+002  5.51432674E+000   4.06335132E-001      18.55  <-- SCF
          Max force change        5.466E-002                             <-- SCF
      4  -4.39173128E+002  5.48337488E+000  -2.08065611E-002      22.56  <-- SCF
          Max force change        7.028E-003                             <-- SCF
      5  -4.39161616E+002  5.47099505E+000  -2.87823046E-003      26.53  <-- SCF
          Max force change        6.303E-003                             <-- SCF
      6  -4.39161610E+002  5.47076276E+000  -1.28791035E-006      30.55  <-- SCF
          Max force change        2.117E-003                             <-- SCF
      7  -4.39161610E+002  5.47076597E+000  -2.21954434E-009      33.86  <-- SCF
          Max force change        4.455E-004                             <-- SCF
      8  -4.39161610E+002  5.47077333E+000  -2.81877974E-010      36.88  <-- SCF
          Max force change        3.885E-005                             <-- SCF
------------------------------------------------------------------------ <-- SCF
 
Final energy, E             =  -439.1536666564     eV
Final free energy (E-TS)    =  -439.1616103518     eV
(energies not corrected for finite basis set)
 
NB est. 0K energy (E-0.5TS)      =  -439.1576385041     eV
 
Calculating total energy with cut-off of  695.000 eV.
------------------------------------------------------------------------ <-- SCF
SCF loop      Energy           Fermi           Energy gain       Timer   <-- SCF
                               energy          per atom          (sec)   <-- SCF
------------------------------------------------------------------------ <-- SCF
Initial  -4.39153667E+002  0.00000000E+000                        39.68  <-- SCF
      1  -4.39161611E+002  5.47077344E+000   1.98599696E-003      41.73  <-- SCF
          Max force change        6.201E-006                             <-- SCF
      2  -4.39161611E+002  5.47077344E+000   1.10692028E-011      44.59  <-- SCF
          Max force change        3.327E-007                             <-- SCF
      3  -4.39161611E+002  5.47077351E+000   1.61929386E-012      47.45  <-- SCF
          Max force change        1.262E-005                             <-- SCF
      4  -4.39161611E+002  5.47077353E+000   5.07539865E-013      50.29  <-- SCF
          Max force change        6.728E-007                             <-- SCF
------------------------------------------------------------------------ <-- SCF
 
Final energy, E             =  -439.1536669487     eV
Final free energy (E-TS)    =  -439.1616106443     eV
(energies not corrected for finite basis set)
 
NB est. 0K energy (E-0.5TS)      =  -439.1576387965     eV
 
Calculating total energy with cut-off of  700.000 eV.
------------------------------------------------------------------------ <-- SCF
SCF loop      Energy           Fermi           Energy gain       Timer   <-- SCF
                               energy          per atom          (sec)   <-- SCF
------------------------------------------------------------------------ <-- SCF
Initial  -4.39153667E+002  0.00000000E+000                        53.06  <-- SCF
      1  -4.39161611E+002  5.47077349E+000   1.98599029E-003      55.18  <-- SCF
          Max force change        1.411E-007                             <-- SCF
      2  -4.39161611E+002  5.47077349E+000   8.41066063E-012      58.07  <-- SCF
          Max force change        3.017E-008                             <-- SCF
      3  -4.39161611E+002  5.47077353E+000   2.63437359E-012      60.96  <-- SCF
          Max force change        3.090E-007                             <-- SCF
      4  -4.39161611E+002  5.47077353E+000  -1.69179955E-013      63.87  <-- SCF
          Max force change        5.641E-008                             <-- SCF
------------------------------------------------------------------------ <-- SCF
 
Final energy, E             =  -439.1536672146     eV
Final free energy (E-TS)    =  -439.1616109099     eV
(energies not corrected for finite basis set)
 
NB est. 0K energy (E-0.5TS)      =  -439.1576390623     eV
 
 For future reference: finite basis dEtot/dlog(Ecut) =      -0.000039eV
 Total energy corrected for finite basis set =    -439.161611 eV
 
 ******************* Unconstrained Forces *******************
 *                                                          *
 *               Cartesian components (eV/A)                *
 * -------------------------------------------------------- *
 *                         x            y            z      *
 *                                                          *
 * Al              1      0.00000     -0.00000      0.00000 *
 * Al              2     -0.00000      0.00000      0.00000 *
 * Al              3     -0.00000     -0.00000     -0.00000 *
 * Al              4      0.00000      0.00000     -0.00000 *
 *                                                          *
 ************************************************************
 
 ******************** Constrained Forces ********************
 *                                                          *
 *               Cartesian components (eV/A)                *
 * -------------------------------------------------------- *
 *                         x            y            z      *
 *                                                          *
 * Al              1      0.00000     -0.00000      0.00000 *
 * Al              2     -0.00000      0.00000      0.00000 *
 * Al              3     -0.00000     -0.00000     -0.00000 *
 * Al              4      0.00000      0.00000     -0.00000 *
 *                                                          *
 ************************************************************
 
 ***************** Stress Tensor *****************
 *                                               *
 *          Cartesian components (GPa)           *
 * --------------------------------------------- *
 *             x             y             z     *
 *                                               *
 *  x      1.002178      0.000000      0.000000  *
 *  y      0.000000      1.002178     -0.000000  *
 *  z      0.000000     -0.000000      1.002178  *
 *                                               *
 *  Pressure:   -1.0022                          *
 *                                               *
 *************************************************
 
 Pseudo atomic calculation performed for Al 3s2 3p1
 
 Converged in 18 iterations to a total energy of -105.5954 eV
 
Charge spilling parameter for spin component 1 = 1.56%
 
     Atomic Populations (Mulliken)
     -----------------------------
Species          Ion     s      p      d      f     Total  Charge (e)
=====================================================================
  Al              1     1.11   1.89   0.00   0.00   3.00     0.00
  Al              2     1.11   1.89   0.00   0.00   3.00     0.00
  Al              3     1.11   1.89   0.00   0.00   3.00     0.00
  Al              4     1.11   1.89   0.00   0.00   3.00     0.00
=====================================================================
 
                 Bond                   Population      Length (A)
======================================================================
              Al 3 -- Al 4                   0.27        2.82843
              Al 2 -- Al 4                   0.27        2.82843
              Al 2 -- Al 3                   0.27        2.82843
              Al 1 -- Al 4                   0.27        2.82843
              Al 1 -- Al 3                   0.27        2.82843
              Al 1 -- Al 2                   0.27        2.82843
======================================================================
 
 
 A BibTeX formatted list of references used in this run has been written to 
 castep.bib
 
Initialisation time =      4.61 s
Calculation time    =     67.02 s
Finalisation time   =      0.08 s
Total time          =     71.70 s
Peak Memory Use     = 721156 kB
  
Overall parallel efficiency rating: Excellent (91%)                             
  
Data was distributed by:-
k-point (32-way); efficiency rating: Excellent (93%)                            
  
Parallel notes:
1) Calculation only took 71.6 s, so efficiency estimates may be inaccurate.     
 +-------------------------------------------------+
 |                                                 |
 |      CCC   AA    SSS  TTTTT  EEEEE  PPPP        |
 |     C     A  A  S       T    E      P   P       |
 |     C     AAAA   SS     T    EEE    PPPP        |
 |     C     A  A     S    T    E      P           |
 |      CCC  A  A  SSS     T    EEEEE  P           |
 |                                                 |
 +-------------------------------------------------+
 |                                                 |
 | Welcome to Academic Release CASTEP version 17.21|          
 | Ab Initio Total Energy Program                  |
 |                                                 |
 | Authors:                                        |
 | M. Segall, M. Probert, C. Pickard, P. Hasnip,   |
 | S. Clark, K. Refson, J. R. Yates, M. Payne      |
 |                                                 |
 | Contributors:                                   |
 | P. Lindan, P. Haynes, J. White, V. Milman,      |
 | N. Govind, M. Gibson, P. Tulip, V. Cocula,      |
 | B. Montanari, D. Quigley, M. Glover,            |
 | L. Bernasconi, A. Perlov, M. Plummer,           |
 | E. McNellis, J. Meyer, J. Gale, D. Jochym       |
 | J. Aarons, B. Walker, R. Gillen, D. Jones       |
 | T. Green, I. J. Bush, C. J. Armstrong,          |
 | E. J. Higgins, E. L. Brown, M. S. McFly,        |
 | J. Wilkins, B-C. Shih, P. J. P. Byrne           |
 |                                                 |
 | Copyright (c) 2000 - 2017                       |
 |                                                 |
 |     Distributed under the terms of an           |
 |     Agreement between the United Kingdom        |
 |     Car-Parrinello (UKCP) Consortium,           |
 |     Daresbury Laboratory and Accelrys, Inc.     |
 |                                                 |
 | Please cite                                     |
 |                                                 |
 |     "First principles methods using CASTEP"     |
 |                                                 |
 |         Zeitschrift fuer Kristallographie       |
 |           220(5-6) pp. 567-570 (2005)           |
 |                                                 |
 | S. J. Clark, M. D. Segall, C. J. Pickard,       |
 | P. J. Hasnip, M. J. Probert, K. Refson,         |
 | M. C. Payne                                     |
 |                                                 |
 |       in all publications arising from          |
 |              your use of CASTEP                 |
 |                                                 |
 +-------------------------------------------------+
 
 
 Compiled for linux_x86_64_ifort17 on Fri, 08 Dec 2017 17:04:03 +0000
 from code version 
 056e886bd5a1+ Castep172_branch Mon, 15 May 2017 14:45:35 +0100
 Compiler: Intel Fortran 17.0.4.196; Optimisation: fast
 MATHLIBS: Intel MKL(2017.0.3) (LAPACK version 3.7.0)
 FFT Lib : mkl
 Fundamental constants values: CODATA 2010
 
 Run started: Tue, 30 Jun 2020 01:05:21 +0100
 
 Atomic calculation performed for Al: 1s2 2s2 2p6 3s2 3p1
 
 Converged in 55 iterations to an ae energy of -6578.725 eV
 
   ============================================================                
   | Pseudopotential Report - Date of generation 30-06-2020   |                
   ------------------------------------------------------------                
   | Element: Al Ionic charge:  3.00 Level of theory: LDA     |                
   | Atomic Solver: Koelling-Harmon                           |                
   |                                                          |                
   |               Reference Electronic Structure             |                
   |         Orbital         Occupation         Energy        |                
   |            3s              2.000           -0.288        |                
   |            3p              1.000           -0.102        |                
   |                                                          |                
   |                 Pseudopotential Definition               |                
   |        Beta     l      e      Rc     scheme   norm       |                
   |          1      0   -0.288   2.192     qc      0         |                
   |          2      0    0.250   2.192     qc      0         |                
   |          3      1   -0.102   2.192     qc      0         |                
   |          4      1    0.250   2.192     qc      0         |                
   |          5      2    0.000   2.000     qc      0         |                
   |          6      2    0.250   2.000     qc      0         |                
   |         loc     3    0.000   2.192     pn      0         |                
   |                                                          |                
   | Augmentation charge Rinner = 1.398                       |                
   | Partial core correction Rc = 1.398                       |                
   ------------------------------------------------------------                
   | "3|2.2|2.2|1.4|4|5|5|30:31:32U2U2"                       |                
   ------------------------------------------------------------                
   |      Author: Chris J. Pickard, Cambridge University      |                
   ============================================================                
 
 Pseudo atomic calculation performed for Al 3s2 3p1
 
 Converged in 18 iterations to a total energy of -105.5954 eV
 
 Calculation parallelised over 32 processes.
 Data is distributed by k-point(32-way)

 ************************************ Title ************************************
 

 ***************************** General Parameters ******************************
  
 output verbosity                               : normal  (1)
 write checkpoint data to                       : castep.check
 type of calculation                            : single point energy
 stress calculation                             : on
 density difference calculation                 : off
 electron localisation func (ELF) calculation   : off
 Hirshfeld analysis                             : off
 unlimited duration calculation
 timing information                             : on
 memory usage estimate                          : on
 write final potential to formatted file        : off
 write final density to formatted file          : off
 write BibTeX reference list                    : on
 write OTFG pseudopotential files               : on
 write electrostatic potential file             : on
 write bands file                               : on
 checkpoint writing                             : off
  
 output         length unit                     : A
 output           mass unit                     : amu
 output           time unit                     : ps
 output         charge unit                     : e
 output           spin unit                     : hbar/2
 output         energy unit                     : eV
 output          force unit                     : eV/A
 output       velocity unit                     : A/ps
 output       pressure unit                     : GPa
 output     inv_length unit                     : 1/A
 output      frequency unit                     : cm-1
 output force constant unit                     : eV/A**2
 output         volume unit                     : A**3
 output   IR intensity unit                     : (D/A)**2/amu
 output         dipole unit                     : D
 output         efield unit                     : eV/A/e
 output        entropy unit                     : J/mol/K
  
 wavefunctions paging                           : none
 random number generator seed                   : randomised (10521766)
 data distribution                              : optimal for this architecture
 optimization strategy                          : maximize speed(+++)

 *********************** Exchange-Correlation Parameters ***********************
  
 using functional                               : Local Density Approximation
 relativistic treatment                         : Koelling-Harmon
 DFT+D: Semi-empirical dispersion correction    : off

 ************************* Pseudopotential Parameters **************************
  
 pseudopotential representation                 : reciprocal space
 <beta|phi> representation                      : reciprocal space
 spin-orbit coupling                            : off

 **************************** Basis Set Parameters *****************************
  
 plane wave basis set cut-off                   :   700.0000   eV
 size of standard grid                          :     1.7500
 size of   fine   grid                          :     2.0000
 size of   fine   gmax                          :    27.1093   1/A
 finite basis set correction                    : automatic
 number of sample energies                      :          3
           sample  spacing                      :     5.0000   eV

 **************************** Electronic Parameters ****************************
  
 number of  electrons                           :  12.00    
 net charge of system                           :  0.000    
 treating system as non-spin-polarized
 number of bands                                :         10

 ********************* Electronic Minimization Parameters **********************
  
 Method: Treating system as metallic with density mixing treatment of electrons,
         and number of  SD  steps               :          1
         and number of  CG  steps               :          4
  
 total energy / atom convergence tol.           : 0.1000E-06   eV
 eigen-energy convergence tolerance             : 0.6667E-07   eV
 max force / atom convergence tol.              : 0.1000E-02   eV/A
 convergence tolerance window                   :          3   cycles
 max. number of SCF cycles                      :         30
 number of fixed-spin iterations                :         10
 smearing scheme                                : Gaussian
 smearing width                                 : 0.1000       eV
 Fermi energy convergence tolerance             : 0.2721E-13   eV
 periodic dipole correction                     : NONE

 ************************** Density Mixing Parameters **************************
  
 density-mixing scheme                          : Pulay
 max. length of mixing history                  :         20
 charge density mixing amplitude                : 0.8000    
 cut-off energy for mixing                      :  700.0       eV

 *********************** Population Analysis Parameters ************************
  
 Population analysis with cutoff                :  3.000       A

 *******************************************************************************
  
 
                           -------------------------------
                                      Unit Cell
                           -------------------------------
        Real Lattice(A)                      Reciprocal Lattice(1/A)
   3.9663850   0.0000000   0.0000000        1.5841088   0.0000000   0.0000000
   0.0000000   3.9663850   0.0000000        0.0000000   1.5841088   0.0000000
   0.0000000   0.0000000   3.9663850        0.0000000   0.0000000   1.5841088
 
                       Lattice parameters(A)       Cell Angles
                    a =    3.966385          alpha =   90.000000
                    b =    3.966385          beta  =   90.000000
                    c =    3.966385          gamma =   90.000000
 
                       Current cell volume =   62.400002       A**3
                                   density =    1.729586   AMU/A**3
                                           =    2.872045     g/cm^3
 
                           -------------------------------
                                     Cell Contents
                           -------------------------------
                         Total number of ions in cell =    4
                      Total number of species in cell =    1
                        Max number of any one species =    4
 
            xxxxxxxxxxxxxxxxxxxxxxxxxxxxxxxxxxxxxxxxxxxxxxxxxxxxxxxxxxxx
            x  Element    Atom        Fractional coordinates of atoms  x
            x            Number           u          v          w      x
            x----------------------------------------------------------x
            x  Al           1         0.000000   0.000000   0.000000   x 
            x  Al           2         0.500000   0.500000   0.000000   x 
            x  Al           3         0.500000   0.000000   0.500000   x 
            x  Al           4         0.000000   0.500000   0.500000   x 
            xxxxxxxxxxxxxxxxxxxxxxxxxxxxxxxxxxxxxxxxxxxxxxxxxxxxxxxxxxxx
 
 
                         No user defined ionic velocities
 
                           -------------------------------
                                   Details of Species
                           -------------------------------
 
                               Mass of species in AMU
                                    Al   26.9815400
 
                          Electric Quadrupole Moment (Barn)
                                    Al    0.1466000 Isotope 27
 
                          Files used for pseudopotentials:
                                    Al 3|2.2|2.2|1.4|4|5|5|30:31:32U2U2
 
                           -------------------------------
                              k-Points For BZ Sampling
                           -------------------------------
                       MP grid size for SCF calculation is 13 13 13
                            with an offset of   0.000  0.000  0.000
                       Number of kpoints used =          1099
 
                           -------------------------------
                               Symmetry and Constraints
                           -------------------------------
 
                      Cell is a supercell containing 4 primitive cells
                      Maximum deviation from symmetry =  0.00000         ANG
 
                      Number of symmetry operations   =           1
                      Number of ionic constraints     =           3
                      Point group of crystal =     1: C1, 1, 1
                      Space group of crystal =   225: Fm-3m, -F 4 2 3
 
             Set iprint > 1 for details on symmetry rotations/translations
 
                         Centre of mass is constrained
             Set iprint > 1 for details of linear ionic constraints
 
                         Number of cell constraints= 0
                         Cell constraints are:  1 2 3 4 5 6
 
                         External pressure/stress (GPa)
                          0.00000   0.00000   0.00000
                                    0.00000   0.00000
                                              0.00000
  
+---------------- MEMORY AND SCRATCH DISK ESTIMATES PER PROCESS --------------+
|                                                     Memory          Disk    |
| Baseline code, static data and system overhead      388.0 MB         0.0 MB |
| BLAS internal memory storage                          0.0 MB         0.0 MB |
| Model and support data                              118.0 MB         0.0 MB |
| Electronic energy minimisation requirements          39.6 MB         0.0 MB |
| Force calculation requirements                        8.0 MB         0.0 MB |
| Stress calculation requirements                       8.7 MB         0.0 MB |
|                                               ----------------------------- |
| Approx. total storage required per process          545.6 MB         0.0 MB |
|                                                                             |
| Requirements will fluctuate during execution and may exceed these estimates |
+-----------------------------------------------------------------------------+
Calculating finite basis set correction with  3 cut-off energies.
Calculating total energy with cut-off of  690.000 eV.
------------------------------------------------------------------------ <-- SCF
SCF loop      Energy           Fermi           Energy gain       Timer   <-- SCF
                               energy          per atom          (sec)   <-- SCF
------------------------------------------------------------------------ <-- SCF
Initial   8.54004238E+001  0.00000000E+000                         7.57  <-- SCF
      1  -4.04420206E+002  8.57113861E+000   1.22455157E+002      10.82  <-- SCF
          Max force change        1.180E-001                             <-- SCF
      2  -4.37663262E+002  5.82410365E+000   8.31076396E+000      14.31  <-- SCF
          Max force change        7.020E-002                             <-- SCF
      3  -4.39255063E+002  5.71078054E+000   3.97950341E-001      17.89  <-- SCF
          Max force change        2.684E-002                             <-- SCF
      4  -4.39172576E+002  5.68102557E+000  -2.06217648E-002      21.79  <-- SCF
          Max force change        9.520E-003                             <-- SCF
      5  -4.39161201E+002  5.66942103E+000  -2.84389864E-003      25.68  <-- SCF
          Max force change        6.705E-003                             <-- SCF
      6  -4.39161195E+002  5.66918678E+000  -1.48189208E-006      29.71  <-- SCF
          Max force change        1.723E-003                             <-- SCF
      7  -4.39161195E+002  5.66918888E+000  -1.79086650E-009      32.92  <-- SCF
          Max force change        3.356E-004                             <-- SCF
      8  -4.39161195E+002  5.66919543E+000  -2.72766425E-010      35.89  <-- SCF
          Max force change        3.120E-005                             <-- SCF
------------------------------------------------------------------------ <-- SCF
 
Final energy, E             =  -439.1530437581     eV
Final free energy (E-TS)    =  -439.1611947263     eV
(energies not corrected for finite basis set)
 
NB est. 0K energy (E-0.5TS)      =  -439.1571192422     eV
 
Calculating total energy with cut-off of  695.000 eV.
------------------------------------------------------------------------ <-- SCF
SCF loop      Energy           Fermi           Energy gain       Timer   <-- SCF
                               energy          per atom          (sec)   <-- SCF
------------------------------------------------------------------------ <-- SCF
Initial  -4.39153044E+002  0.00000000E+000                        38.62  <-- SCF
      1  -4.39161195E+002  5.66919555E+000   2.03782149E-003      40.61  <-- SCF
          Max force change        4.486E-006                             <-- SCF
      2  -4.39161195E+002  5.66919555E+000   1.15767426E-011      43.49  <-- SCF
          Max force change        3.395E-007                             <-- SCF
      3  -4.39161195E+002  5.66919561E+000   1.88514807E-012      46.47  <-- SCF
          Max force change        8.451E-006                             <-- SCF
      4  -4.39161195E+002  5.66919563E+000   3.86697040E-013      49.33  <-- SCF
          Max force change        3.872E-007                             <-- SCF
------------------------------------------------------------------------ <-- SCF
 
Final energy, E             =  -439.1530440764     eV
Final free energy (E-TS)    =  -439.1611950441     eV
(energies not corrected for finite basis set)
 
NB est. 0K energy (E-0.5TS)      =  -439.1571195603     eV
 
Calculating total energy with cut-off of  700.000 eV.
------------------------------------------------------------------------ <-- SCF
SCF loop      Energy           Fermi           Energy gain       Timer   <-- SCF
                               energy          per atom          (sec)   <-- SCF
------------------------------------------------------------------------ <-- SCF
Initial  -4.39153044E+002  0.00000000E+000                        52.07  <-- SCF
      1  -4.39161195E+002  5.66919561E+000   2.03781571E-003      54.04  <-- SCF
          Max force change        2.059E-007                             <-- SCF
      2  -4.39161195E+002  5.66919561E+000   9.35323466E-012      56.95  <-- SCF
          Max force change        1.824E-008                             <-- SCF
      3  -4.39161195E+002  5.66919565E+000   2.53769933E-012      59.87  <-- SCF
          Max force change        2.283E-007                             <-- SCF
      4  -4.39161195E+002  5.66919565E+000  -9.66742601E-014      62.78  <-- SCF
          Max force change        3.968E-008                             <-- SCF
------------------------------------------------------------------------ <-- SCF
 
Final energy, E             =  -439.1530443719     eV
Final free energy (E-TS)    =  -439.1611953393     eV
(energies not corrected for finite basis set)
 
NB est. 0K energy (E-0.5TS)      =  -439.1571198556     eV
 
 For future reference: finite basis dEtot/dlog(Ecut) =      -0.000042eV
 Total energy corrected for finite basis set =    -439.161195 eV
 
 ******************* Unconstrained Forces *******************
 *                                                          *
 *               Cartesian components (eV/A)                *
 * -------------------------------------------------------- *
 *                         x            y            z      *
 *                                                          *
 * Al              1     -0.00000     -0.00000     -0.00000 *
 * Al              2      0.00000      0.00000     -0.00000 *
 * Al              3      0.00000     -0.00000      0.00000 *
 * Al              4     -0.00000      0.00000      0.00000 *
 *                                                          *
 ************************************************************
 
 ******************** Constrained Forces ********************
 *                                                          *
 *               Cartesian components (eV/A)                *
 * -------------------------------------------------------- *
 *                         x            y            z      *
 *                                                          *
 * Al              1     -0.00000     -0.00000     -0.00000 *
 * Al              2      0.00000      0.00000     -0.00000 *
 * Al              3      0.00000     -0.00000      0.00000 *
 * Al              4     -0.00000      0.00000      0.00000 *
 *                                                          *
 ************************************************************
 
 ***************** Stress Tensor *****************
 *                                               *
 *          Cartesian components (GPa)           *
 * --------------------------------------------- *
 *             x             y             z     *
 *                                               *
 *  x     -1.134886      0.000000     -0.000000  *
 *  y      0.000000     -1.134886     -0.000000  *
 *  z     -0.000000     -0.000000     -1.134886  *
 *                                               *
 *  Pressure:    1.1349                          *
 *                                               *
 *************************************************
 
 Pseudo atomic calculation performed for Al 3s2 3p1
 
 Converged in 18 iterations to a total energy of -105.5954 eV
 
Charge spilling parameter for spin component 1 = 1.58%
 
     Atomic Populations (Mulliken)
     -----------------------------
Species          Ion     s      p      d      f     Total  Charge (e)
=====================================================================
  Al              1     1.10   1.90   0.00   0.00   3.00     0.00
  Al              2     1.10   1.90   0.00   0.00   3.00     0.00
  Al              3     1.10   1.90   0.00   0.00   3.00     0.00
  Al              4     1.10   1.90   0.00   0.00   3.00     0.00
=====================================================================
 
                 Bond                   Population      Length (A)
======================================================================
              Al 3 -- Al 4                   0.24        2.80466
              Al 2 -- Al 4                   0.24        2.80466
              Al 2 -- Al 3                   0.24        2.80466
              Al 1 -- Al 4                   0.24        2.80466
              Al 1 -- Al 3                   0.24        2.80466
              Al 1 -- Al 2                   0.24        2.80466
======================================================================
 
 
 A BibTeX formatted list of references used in this run has been written to 
 castep.bib
 
Initialisation time =      4.58 s
Calculation time    =     65.93 s
Finalisation time   =      0.07 s
Total time          =     70.58 s
Peak Memory Use     = 728148 kB
  
Overall parallel efficiency rating: Excellent (90%)                             
  
Data was distributed by:-
k-point (32-way); efficiency rating: Excellent (92%)                            
  
Parallel notes:
1) Calculation only took 70.5 s, so efficiency estimates may be inaccurate.     
 +-------------------------------------------------+
 |                                                 |
 |      CCC   AA    SSS  TTTTT  EEEEE  PPPP        |
 |     C     A  A  S       T    E      P   P       |
 |     C     AAAA   SS     T    EEE    PPPP        |
 |     C     A  A     S    T    E      P           |
 |      CCC  A  A  SSS     T    EEEEE  P           |
 |                                                 |
 +-------------------------------------------------+
 |                                                 |
 | Welcome to Academic Release CASTEP version 17.21|          
 | Ab Initio Total Energy Program                  |
 |                                                 |
 | Authors:                                        |
 | M. Segall, M. Probert, C. Pickard, P. Hasnip,   |
 | S. Clark, K. Refson, J. R. Yates, M. Payne      |
 |                                                 |
 | Contributors:                                   |
 | P. Lindan, P. Haynes, J. White, V. Milman,      |
 | N. Govind, M. Gibson, P. Tulip, V. Cocula,      |
 | B. Montanari, D. Quigley, M. Glover,            |
 | L. Bernasconi, A. Perlov, M. Plummer,           |
 | E. McNellis, J. Meyer, J. Gale, D. Jochym       |
 | J. Aarons, B. Walker, R. Gillen, D. Jones       |
 | T. Green, I. J. Bush, C. J. Armstrong,          |
 | E. J. Higgins, E. L. Brown, M. S. McFly,        |
 | J. Wilkins, B-C. Shih, P. J. P. Byrne           |
 |                                                 |
 | Copyright (c) 2000 - 2017                       |
 |                                                 |
 |     Distributed under the terms of an           |
 |     Agreement between the United Kingdom        |
 |     Car-Parrinello (UKCP) Consortium,           |
 |     Daresbury Laboratory and Accelrys, Inc.     |
 |                                                 |
 | Please cite                                     |
 |                                                 |
 |     "First principles methods using CASTEP"     |
 |                                                 |
 |         Zeitschrift fuer Kristallographie       |
 |           220(5-6) pp. 567-570 (2005)           |
 |                                                 |
 | S. J. Clark, M. D. Segall, C. J. Pickard,       |
 | P. J. Hasnip, M. J. Probert, K. Refson,         |
 | M. C. Payne                                     |
 |                                                 |
 |       in all publications arising from          |
 |              your use of CASTEP                 |
 |                                                 |
 +-------------------------------------------------+
 
 
 Compiled for linux_x86_64_ifort17 on Fri, 08 Dec 2017 17:04:03 +0000
 from code version 
 056e886bd5a1+ Castep172_branch Mon, 15 May 2017 14:45:35 +0100
 Compiler: Intel Fortran 17.0.4.196; Optimisation: fast
 MATHLIBS: Intel MKL(2017.0.3) (LAPACK version 3.7.0)
 FFT Lib : mkl
 Fundamental constants values: CODATA 2010
 
 Run started: Tue, 30 Jun 2020 01:06:34 +0100
 
 Atomic calculation performed for Al: 1s2 2s2 2p6 3s2 3p1
 
 Converged in 55 iterations to an ae energy of -6578.725 eV
 
   ============================================================                
   | Pseudopotential Report - Date of generation 30-06-2020   |                
   ------------------------------------------------------------                
   | Element: Al Ionic charge:  3.00 Level of theory: LDA     |                
   | Atomic Solver: Koelling-Harmon                           |                
   |                                                          |                
   |               Reference Electronic Structure             |                
   |         Orbital         Occupation         Energy        |                
   |            3s              2.000           -0.288        |                
   |            3p              1.000           -0.102        |                
   |                                                          |                
   |                 Pseudopotential Definition               |                
   |        Beta     l      e      Rc     scheme   norm       |                
   |          1      0   -0.288   2.192     qc      0         |                
   |          2      0    0.250   2.192     qc      0         |                
   |          3      1   -0.102   2.192     qc      0         |                
   |          4      1    0.250   2.192     qc      0         |                
   |          5      2    0.000   2.000     qc      0         |                
   |          6      2    0.250   2.000     qc      0         |                
   |         loc     3    0.000   2.192     pn      0         |                
   |                                                          |                
   | Augmentation charge Rinner = 1.398                       |                
   | Partial core correction Rc = 1.398                       |                
   ------------------------------------------------------------                
   | "3|2.2|2.2|1.4|4|5|5|30:31:32U2U2"                       |                
   ------------------------------------------------------------                
   |      Author: Chris J. Pickard, Cambridge University      |                
   ============================================================                
 
 Pseudo atomic calculation performed for Al 3s2 3p1
 
 Converged in 18 iterations to a total energy of -105.5954 eV
 
 Calculation parallelised over 32 processes.
 Data is distributed by k-point(32-way)

 ************************************ Title ************************************
 

 ***************************** General Parameters ******************************
  
 output verbosity                               : normal  (1)
 write checkpoint data to                       : castep.check
 type of calculation                            : single point energy
 stress calculation                             : on
 density difference calculation                 : off
 electron localisation func (ELF) calculation   : off
 Hirshfeld analysis                             : off
 unlimited duration calculation
 timing information                             : on
 memory usage estimate                          : on
 write final potential to formatted file        : off
 write final density to formatted file          : off
 write BibTeX reference list                    : on
 write OTFG pseudopotential files               : on
 write electrostatic potential file             : on
 write bands file                               : on
 checkpoint writing                             : off
  
 output         length unit                     : A
 output           mass unit                     : amu
 output           time unit                     : ps
 output         charge unit                     : e
 output           spin unit                     : hbar/2
 output         energy unit                     : eV
 output          force unit                     : eV/A
 output       velocity unit                     : A/ps
 output       pressure unit                     : GPa
 output     inv_length unit                     : 1/A
 output      frequency unit                     : cm-1
 output force constant unit                     : eV/A**2
 output         volume unit                     : A**3
 output   IR intensity unit                     : (D/A)**2/amu
 output         dipole unit                     : D
 output         efield unit                     : eV/A/e
 output        entropy unit                     : J/mol/K
  
 wavefunctions paging                           : none
 random number generator seed                   : randomised (10634534)
 data distribution                              : optimal for this architecture
 optimization strategy                          : maximize speed(+++)

 *********************** Exchange-Correlation Parameters ***********************
  
 using functional                               : Local Density Approximation
 relativistic treatment                         : Koelling-Harmon
 DFT+D: Semi-empirical dispersion correction    : off

 ************************* Pseudopotential Parameters **************************
  
 pseudopotential representation                 : reciprocal space
 <beta|phi> representation                      : reciprocal space
 spin-orbit coupling                            : off

 **************************** Basis Set Parameters *****************************
  
 plane wave basis set cut-off                   :   700.0000   eV
 size of standard grid                          :     1.7500
 size of   fine   grid                          :     2.0000
 size of   fine   gmax                          :    27.1093   1/A
 finite basis set correction                    : automatic
 number of sample energies                      :          3
           sample  spacing                      :     5.0000   eV

 **************************** Electronic Parameters ****************************
  
 number of  electrons                           :  12.00    
 net charge of system                           :  0.000    
 treating system as non-spin-polarized
 number of bands                                :         10

 ********************* Electronic Minimization Parameters **********************
  
 Method: Treating system as metallic with density mixing treatment of electrons,
         and number of  SD  steps               :          1
         and number of  CG  steps               :          4
  
 total energy / atom convergence tol.           : 0.1000E-06   eV
 eigen-energy convergence tolerance             : 0.6667E-07   eV
 max force / atom convergence tol.              : 0.1000E-02   eV/A
 convergence tolerance window                   :          3   cycles
 max. number of SCF cycles                      :         30
 number of fixed-spin iterations                :         10
 smearing scheme                                : Gaussian
 smearing width                                 : 0.1000       eV
 Fermi energy convergence tolerance             : 0.2721E-13   eV
 periodic dipole correction                     : NONE

 ************************** Density Mixing Parameters **************************
  
 density-mixing scheme                          : Pulay
 max. length of mixing history                  :         20
 charge density mixing amplitude                : 0.8000    
 cut-off energy for mixing                      :  700.0       eV

 *********************** Population Analysis Parameters ************************
  
 Population analysis with cutoff                :  3.000       A

 *******************************************************************************
  
 
                           -------------------------------
                                      Unit Cell
                           -------------------------------
        Real Lattice(A)                      Reciprocal Lattice(1/A)
   3.9321900   0.0000000   0.0000000        1.5978845   0.0000000   0.0000000
   0.0000000   3.9321900   0.0000000        0.0000000   1.5978845   0.0000000
   0.0000000   0.0000000   3.9321900        0.0000000   0.0000000   1.5978845
 
                       Lattice parameters(A)       Cell Angles
                    a =    3.932190          alpha =   90.000000
                    b =    3.932190          beta  =   90.000000
                    c =    3.932190          gamma =   90.000000
 
                       Current cell volume =   60.799987       A**3
                                   density =    1.775102   AMU/A**3
                                           =    2.947625     g/cm^3
 
                           -------------------------------
                                     Cell Contents
                           -------------------------------
                         Total number of ions in cell =    4
                      Total number of species in cell =    1
                        Max number of any one species =    4
 
            xxxxxxxxxxxxxxxxxxxxxxxxxxxxxxxxxxxxxxxxxxxxxxxxxxxxxxxxxxxx
            x  Element    Atom        Fractional coordinates of atoms  x
            x            Number           u          v          w      x
            x----------------------------------------------------------x
            x  Al           1         0.000000   0.000000   0.000000   x 
            x  Al           2         0.500000   0.500000   0.000000   x 
            x  Al           3         0.500000   0.000000   0.500000   x 
            x  Al           4         0.000000   0.500000   0.500000   x 
            xxxxxxxxxxxxxxxxxxxxxxxxxxxxxxxxxxxxxxxxxxxxxxxxxxxxxxxxxxxx
 
 
                         No user defined ionic velocities
 
                           -------------------------------
                                   Details of Species
                           -------------------------------
 
                               Mass of species in AMU
                                    Al   26.9815400
 
                          Electric Quadrupole Moment (Barn)
                                    Al    0.1466000 Isotope 27
 
                          Files used for pseudopotentials:
                                    Al 3|2.2|2.2|1.4|4|5|5|30:31:32U2U2
 
                           -------------------------------
                              k-Points For BZ Sampling
                           -------------------------------
                       MP grid size for SCF calculation is 13 13 13
                            with an offset of   0.000  0.000  0.000
                       Number of kpoints used =          1099
 
                           -------------------------------
                               Symmetry and Constraints
                           -------------------------------
 
                      Cell is a supercell containing 4 primitive cells
                      Maximum deviation from symmetry =  0.00000         ANG
 
                      Number of symmetry operations   =           1
                      Number of ionic constraints     =           3
                      Point group of crystal =     1: C1, 1, 1
                      Space group of crystal =   225: Fm-3m, -F 4 2 3
 
             Set iprint > 1 for details on symmetry rotations/translations
 
                         Centre of mass is constrained
             Set iprint > 1 for details of linear ionic constraints
 
                         Number of cell constraints= 0
                         Cell constraints are:  1 2 3 4 5 6
 
                         External pressure/stress (GPa)
                          0.00000   0.00000   0.00000
                                    0.00000   0.00000
                                              0.00000
  
+---------------- MEMORY AND SCRATCH DISK ESTIMATES PER PROCESS --------------+
|                                                     Memory          Disk    |
| Baseline code, static data and system overhead      388.0 MB         0.0 MB |
| BLAS internal memory storage                          0.0 MB         0.0 MB |
| Model and support data                              117.3 MB         0.0 MB |
| Electronic energy minimisation requirements          38.7 MB         0.0 MB |
| Force calculation requirements                        8.0 MB         0.0 MB |
| Stress calculation requirements                       8.7 MB         0.0 MB |
|                                               ----------------------------- |
| Approx. total storage required per process          544.0 MB         0.0 MB |
|                                                                             |
| Requirements will fluctuate during execution and may exceed these estimates |
+-----------------------------------------------------------------------------+
Calculating finite basis set correction with  3 cut-off energies.
Calculating total energy with cut-off of  690.000 eV.
------------------------------------------------------------------------ <-- SCF
SCF loop      Energy           Fermi           Energy gain       Timer   <-- SCF
                               energy          per atom          (sec)   <-- SCF
------------------------------------------------------------------------ <-- SCF
Initial   8.40817427E+001  0.00000000E+000                         7.58  <-- SCF
      1  -4.04620675E+002  8.77026776E+000   1.22175604E+002      10.76  <-- SCF
          Max force change        1.640E-001                             <-- SCF
      2  -4.37683004E+002  6.03861559E+000   8.26558241E+000      14.18  <-- SCF
          Max force change        1.118E-001                             <-- SCF
      3  -4.39231386E+002  5.91486919E+000   3.87095424E-001      17.64  <-- SCF
          Max force change        5.355E-002                             <-- SCF
      4  -4.39149108E+002  5.88668450E+000  -2.05695558E-002      21.43  <-- SCF
          Max force change        6.923E-003                             <-- SCF
      5  -4.39137881E+002  5.87583996E+000  -2.80665734E-003      25.23  <-- SCF
          Max force change        3.803E-003                             <-- SCF
      6  -4.39137874E+002  5.87560373E+000  -1.70279456E-006      29.10  <-- SCF
          Max force change        7.515E-004                             <-- SCF
      7  -4.39137874E+002  5.87560682E+000  -4.70900321E-010      32.30  <-- SCF
          Max force change        1.482E-004                             <-- SCF
      8  -4.39137874E+002  5.87561225E+000  -2.50845536E-010      35.24  <-- SCF
          Max force change        6.426E-006                             <-- SCF
------------------------------------------------------------------------ <-- SCF
 
Final energy, E             =  -439.1296768487     eV
Final free energy (E-TS)    =  -439.1378743722     eV
(energies not corrected for finite basis set)
 
NB est. 0K energy (E-0.5TS)      =  -439.1337756104     eV
 
Calculating total energy with cut-off of  695.000 eV.
------------------------------------------------------------------------ <-- SCF
SCF loop      Energy           Fermi           Energy gain       Timer   <-- SCF
                               energy          per atom          (sec)   <-- SCF
------------------------------------------------------------------------ <-- SCF
Initial  -4.39129677E+002  0.00000000E+000                        37.99  <-- SCF
      1  -4.39137875E+002  5.87561239E+000   2.04945851E-003      39.98  <-- SCF
          Max force change        1.287E-006                             <-- SCF
      2  -4.39137875E+002  5.87561239E+000   1.16250798E-011      42.86  <-- SCF
          Max force change        1.501E-007                             <-- SCF
      3  -4.39137875E+002  5.87561244E+000   2.44102507E-012      45.73  <-- SCF
          Max force change        2.428E-006                             <-- SCF
      4  -4.39137875E+002  5.87561245E+000  -1.20842825E-013      48.57  <-- SCF
          Max force change        9.203E-008                             <-- SCF
------------------------------------------------------------------------ <-- SCF
 
Final energy, E             =  -439.1296771590     eV
Final free energy (E-TS)    =  -439.1378746828     eV
(energies not corrected for finite basis set)
 
NB est. 0K energy (E-0.5TS)      =  -439.1337759209     eV
 
Calculating total energy with cut-off of  700.000 eV.
------------------------------------------------------------------------ <-- SCF
SCF loop      Energy           Fermi           Energy gain       Timer   <-- SCF
                               energy          per atom          (sec)   <-- SCF
------------------------------------------------------------------------ <-- SCF
Initial  -4.39129677E+002  0.00000000E+000                        51.29  <-- SCF
      1  -4.39137875E+002  5.87561243E+000   2.04945636E-003      53.22  <-- SCF
          Max force change        3.457E-008                             <-- SCF
      2  -4.39137875E+002  5.87561243E+000   9.71576314E-012      56.05  <-- SCF
          Max force change        4.559E-009                             <-- SCF
      3  -4.39137875E+002  5.87561247E+000   2.22350798E-012      58.91  <-- SCF
          Max force change        7.219E-008                             <-- SCF
      4  -4.39137875E+002  5.87561247E+000   2.90022780E-013      61.77  <-- SCF
          Max force change        1.222E-008                             <-- SCF
------------------------------------------------------------------------ <-- SCF
 
Final energy, E             =  -439.1296774604     eV
Final free energy (E-TS)    =  -439.1378749845     eV
(energies not corrected for finite basis set)
 
NB est. 0K energy (E-0.5TS)      =  -439.1337762224     eV
 
 For future reference: finite basis dEtot/dlog(Ecut) =      -0.000043eV
 Total energy corrected for finite basis set =    -439.137875 eV
 
 ******************* Unconstrained Forces *******************
 *                                                          *
 *               Cartesian components (eV/A)                *
 * -------------------------------------------------------- *
 *                         x            y            z      *
 *                                                          *
 * Al              1      0.00000     -0.00000      0.00000 *
 * Al              2     -0.00000      0.00000      0.00000 *
 * Al              3     -0.00000     -0.00000     -0.00000 *
 * Al              4      0.00000      0.00000     -0.00000 *
 *                                                          *
 ************************************************************
 
 ******************** Constrained Forces ********************
 *                                                          *
 *               Cartesian components (eV/A)                *
 * -------------------------------------------------------- *
 *                         x            y            z      *
 *                                                          *
 * Al              1      0.00000     -0.00000      0.00000 *
 * Al              2     -0.00000      0.00000      0.00000 *
 * Al              3     -0.00000     -0.00000     -0.00000 *
 * Al              4      0.00000      0.00000     -0.00000 *
 *                                                          *
 ************************************************************
 
 ***************** Stress Tensor *****************
 *                                               *
 *          Cartesian components (GPa)           *
 * --------------------------------------------- *
 *             x             y             z     *
 *                                               *
 *  x     -3.592735     -0.000000     -0.000000  *
 *  y     -0.000000     -3.592735      0.000000  *
 *  z     -0.000000      0.000000     -3.592735  *
 *                                               *
 *  Pressure:    3.5927                          *
 *                                               *
 *************************************************
 
 Pseudo atomic calculation performed for Al 3s2 3p1
 
 Converged in 18 iterations to a total energy of -105.5954 eV
 
Charge spilling parameter for spin component 1 = 1.59%
 
     Atomic Populations (Mulliken)
     -----------------------------
Species          Ion     s      p      d      f     Total  Charge (e)
=====================================================================
  Al              1     1.08   1.92   0.00   0.00   3.00    -0.00
  Al              2     1.08   1.92   0.00   0.00   3.00     0.00
  Al              3     1.08   1.92   0.00   0.00   3.00     0.00
  Al              4     1.08   1.92   0.00   0.00   3.00     0.00
=====================================================================
 
                 Bond                   Population      Length (A)
======================================================================
              Al 3 -- Al 4                   0.20        2.78048
              Al 2 -- Al 4                   0.20        2.78048
              Al 2 -- Al 3                   0.20        2.78048
              Al 1 -- Al 4                   0.21        2.78048
              Al 1 -- Al 3                   0.20        2.78048
              Al 1 -- Al 2                   0.20        2.78048
======================================================================
 
 
 A BibTeX formatted list of references used in this run has been written to 
 castep.bib
 
Initialisation time =      4.56 s
Calculation time    =     64.78 s
Finalisation time   =      0.09 s
Total time          =     69.44 s
Peak Memory Use     = 720896 kB
  
Overall parallel efficiency rating: Excellent (91%)                             
  
Data was distributed by:-
k-point (32-way); efficiency rating: Excellent (92%)                            
  
Parallel notes:
1) Calculation only took 69.4 s, so efficiency estimates may be inaccurate.     
 +-------------------------------------------------+
 |                                                 |
 |      CCC   AA    SSS  TTTTT  EEEEE  PPPP        |
 |     C     A  A  S       T    E      P   P       |
 |     C     AAAA   SS     T    EEE    PPPP        |
 |     C     A  A     S    T    E      P           |
 |      CCC  A  A  SSS     T    EEEEE  P           |
 |                                                 |
 +-------------------------------------------------+
 |                                                 |
 | Welcome to Academic Release CASTEP version 17.21|          
 | Ab Initio Total Energy Program                  |
 |                                                 |
 | Authors:                                        |
 | M. Segall, M. Probert, C. Pickard, P. Hasnip,   |
 | S. Clark, K. Refson, J. R. Yates, M. Payne      |
 |                                                 |
 | Contributors:                                   |
 | P. Lindan, P. Haynes, J. White, V. Milman,      |
 | N. Govind, M. Gibson, P. Tulip, V. Cocula,      |
 | B. Montanari, D. Quigley, M. Glover,            |
 | L. Bernasconi, A. Perlov, M. Plummer,           |
 | E. McNellis, J. Meyer, J. Gale, D. Jochym       |
 | J. Aarons, B. Walker, R. Gillen, D. Jones       |
 | T. Green, I. J. Bush, C. J. Armstrong,          |
 | E. J. Higgins, E. L. Brown, M. S. McFly,        |
 | J. Wilkins, B-C. Shih, P. J. P. Byrne           |
 |                                                 |
 | Copyright (c) 2000 - 2017                       |
 |                                                 |
 |     Distributed under the terms of an           |
 |     Agreement between the United Kingdom        |
 |     Car-Parrinello (UKCP) Consortium,           |
 |     Daresbury Laboratory and Accelrys, Inc.     |
 |                                                 |
 | Please cite                                     |
 |                                                 |
 |     "First principles methods using CASTEP"     |
 |                                                 |
 |         Zeitschrift fuer Kristallographie       |
 |           220(5-6) pp. 567-570 (2005)           |
 |                                                 |
 | S. J. Clark, M. D. Segall, C. J. Pickard,       |
 | P. J. Hasnip, M. J. Probert, K. Refson,         |
 | M. C. Payne                                     |
 |                                                 |
 |       in all publications arising from          |
 |              your use of CASTEP                 |
 |                                                 |
 +-------------------------------------------------+
 
 
 Compiled for linux_x86_64_ifort17 on Fri, 08 Dec 2017 17:04:03 +0000
 from code version 
 056e886bd5a1+ Castep172_branch Mon, 15 May 2017 14:45:35 +0100
 Compiler: Intel Fortran 17.0.4.196; Optimisation: fast
 MATHLIBS: Intel MKL(2017.0.3) (LAPACK version 3.7.0)
 FFT Lib : mkl
 Fundamental constants values: CODATA 2010
 
 Run started: Tue, 30 Jun 2020 01:07:44 +0100
 
 Atomic calculation performed for Al: 1s2 2s2 2p6 3s2 3p1
 
 Converged in 55 iterations to an ae energy of -6578.725 eV
 
   ============================================================                
   | Pseudopotential Report - Date of generation 30-06-2020   |                
   ------------------------------------------------------------                
   | Element: Al Ionic charge:  3.00 Level of theory: LDA     |                
   | Atomic Solver: Koelling-Harmon                           |                
   |                                                          |                
   |               Reference Electronic Structure             |                
   |         Orbital         Occupation         Energy        |                
   |            3s              2.000           -0.288        |                
   |            3p              1.000           -0.102        |                
   |                                                          |                
   |                 Pseudopotential Definition               |                
   |        Beta     l      e      Rc     scheme   norm       |                
   |          1      0   -0.288   2.192     qc      0         |                
   |          2      0    0.250   2.192     qc      0         |                
   |          3      1   -0.102   2.192     qc      0         |                
   |          4      1    0.250   2.192     qc      0         |                
   |          5      2    0.000   2.000     qc      0         |                
   |          6      2    0.250   2.000     qc      0         |                
   |         loc     3    0.000   2.192     pn      0         |                
   |                                                          |                
   | Augmentation charge Rinner = 1.398                       |                
[...]
   | "3|2.2|2.2|1.4|4|5|5|30:31:32U2U2"                       |                
   ------------------------------------------------------------                
   |      Author: Chris J. Pickard, Cambridge University      |                
   ============================================================                
 
 Pseudo atomic calculation performed for Al 3s2 3p1
 
 Converged in 18 iterations to a total energy of -105.5954 eV
 
 Calculation parallelised over 32 processes.
 Data is distributed by k-point(32-way)

 ************************************ Title ************************************
 

 ***************************** General Parameters ******************************
  
 output verbosity                               : normal  (1)
 write checkpoint data to                       : castep.check
 type of calculation                            : single point energy
 stress calculation                             : on
 density difference calculation                 : off
 electron localisation func (ELF) calculation   : off
 Hirshfeld analysis                             : off
 unlimited duration calculation
 timing information                             : on
 memory usage estimate                          : on
 write final potential to formatted file        : off
 write final density to formatted file          : off
 write BibTeX reference list                    : on
 write OTFG pseudopotential files               : on
 write electrostatic potential file             : on
 write bands file                               : on
 checkpoint writing                             : off
  
 output         length unit                     : A
 output           mass unit                     : amu
 output           time unit                     : ps
 output         charge unit                     : e
 output           spin unit                     : hbar/2
 output         energy unit                     : eV
 output          force unit                     : eV/A
 output       velocity unit                     : A/ps
 output       pressure unit                     : GPa
 output     inv_length unit                     : 1/A
 output      frequency unit                     : cm-1
 output force constant unit                     : eV/A**2
 output         volume unit                     : A**3
 output   IR intensity unit                     : (D/A)**2/amu
 output         dipole unit                     : D
 output         efield unit                     : eV/A/e
 output        entropy unit                     : J/mol/K
  
 wavefunctions paging                           : none
 random number generator seed                   : randomised (13434069)
 data distribution                              : optimal for this architecture
 optimization strategy                          : maximize speed(+++)

 *********************** Exchange-Correlation Parameters ***********************
  
 using functional                               : Local Density Approximation
 relativistic treatment                         : Koelling-Harmon
 DFT+D: Semi-empirical dispersion correction    : off

 ************************* Pseudopotential Parameters **************************
  
 pseudopotential representation                 : reciprocal space
 <beta|phi> representation                      : reciprocal space
 spin-orbit coupling                            : off

 **************************** Basis Set Parameters *****************************
  
 plane wave basis set cut-off                   :   700.0000   eV
 size of standard grid                          :     1.7500
 size of   fine   grid                          :     2.0000
 size of   fine   gmax                          :    27.1093   1/A
 finite basis set correction                    : automatic
 number of sample energies                      :          3
           sample  spacing                      :     5.0000   eV

 **************************** Electronic Parameters ****************************
  
 number of  electrons                           :  12.00    
 net charge of system                           :  0.000    
 treating system as non-spin-polarized
 number of bands                                :         10

 ********************* Electronic Minimization Parameters **********************
  
 Method: Treating system as metallic with density mixing treatment of electrons,
         and number of  SD  steps               :          1
         and number of  CG  steps               :          4
  
 total energy / atom convergence tol.           : 0.1000E-06   eV
 eigen-energy convergence tolerance             : 0.6667E-07   eV
 max force / atom convergence tol.              : 0.1000E-02   eV/A
 convergence tolerance window                   :          3   cycles
 max. number of SCF cycles                      :         30
 number of fixed-spin iterations                :         10
 smearing scheme                                : Gaussian
 smearing width                                 : 0.1000       eV
 Fermi energy convergence tolerance             : 0.2721E-13   eV
 periodic dipole correction                     : NONE

 ************************** Density Mixing Parameters **************************
  
 density-mixing scheme                          : Pulay
 max. length of mixing history                  :         20
 charge density mixing amplitude                : 0.8000    
 cut-off energy for mixing                      :  700.0       eV

 *********************** Population Analysis Parameters ************************
  
 Population analysis with cutoff                :  3.000       A

 *******************************************************************************
  
 
                           -------------------------------
                                      Unit Cell
                           -------------------------------
        Real Lattice(A)                      Reciprocal Lattice(1/A)
   4.0800000   0.0000000   0.0000000        1.5399964   0.0000000   0.0000000
   0.0000000   4.0000000   0.0400000        0.0000000   1.5709534  -0.0157095
   0.0000000   0.0400000   4.0000000        0.0000000  -0.0157095   1.5709534
 
                       Lattice parameters(A)       Cell Angles
                    a =    4.080000          alpha =   88.854123
                    b =    4.000200          beta  =   90.000000
                    c =    4.000200          gamma =   90.000000
 
                       Current cell volume =   65.273472       A**3
                                   density =    1.653446   AMU/A**3
                                           =    2.745611     g/cm^3
 
                           -------------------------------
                                     Cell Contents
                           -------------------------------
                         Total number of ions in cell =    4
                      Total number of species in cell =    1
                        Max number of any one species =    4
 
            xxxxxxxxxxxxxxxxxxxxxxxxxxxxxxxxxxxxxxxxxxxxxxxxxxxxxxxxxxxx
            x  Element    Atom        Fractional coordinates of atoms  x
            x            Number           u          v          w      x
            x----------------------------------------------------------x
            x  Al           1         0.000000   0.000000   0.000000   x 
            x  Al           2         0.500000   0.500000  -0.000000   x 
            x  Al           3         0.500000  -0.000000   0.500000   x 
            x  Al           4         0.000000   0.500000   0.500000   x 
            xxxxxxxxxxxxxxxxxxxxxxxxxxxxxxxxxxxxxxxxxxxxxxxxxxxxxxxxxxxx
 
 
                         No user defined ionic velocities
 
                           -------------------------------
                                   Details of Species
                           -------------------------------
 
                               Mass of species in AMU
                                    Al   26.9815400
 
                          Electric Quadrupole Moment (Barn)
                                    Al    0.1466000 Isotope 27
 
                          Files used for pseudopotentials:
                                    Al 3|2.2|2.2|1.4|4|5|5|30:31:32U2U2
 
                           -------------------------------
                              k-Points For BZ Sampling
                           -------------------------------
                       MP grid size for SCF calculation is 13 13 13
                            with an offset of   0.000  0.000  0.000
                       Number of kpoints used =          1099
 
                           -------------------------------
                               Symmetry and Constraints
                           -------------------------------
 
                      Cell is a supercell containing 4 primitive cells
                      Maximum deviation from symmetry =  0.00000         ANG
 
                      Number of symmetry operations   =           1
                      Number of ionic constraints     =           3
                      Point group of crystal =     1: C1, 1, 1
                      Space group of crystal =    71: Immm, -I 2 2
 
             Set iprint > 1 for details on symmetry rotations/translations
 
                         Centre of mass is constrained
             Set iprint > 1 for details of linear ionic constraints
 
                         Number of cell constraints= 0
                         Cell constraints are:  1 2 3 4 5 6
 
                         External pressure/stress (GPa)
                          0.00000   0.00000   0.00000
                                    0.00000   0.00000
                                              0.00000
  
+---------------- MEMORY AND SCRATCH DISK ESTIMATES PER PROCESS --------------+
|                                                     Memory          Disk    |
| Baseline code, static data and system overhead      388.0 MB         0.0 MB |
| BLAS internal memory storage                          0.0 MB         0.0 MB |
| Model and support data                              119.8 MB         0.0 MB |
| Electronic energy minimisation requirements          41.7 MB         0.0 MB |
| Force calculation requirements                        8.3 MB         0.0 MB |
| Stress calculation requirements                       9.0 MB         0.0 MB |
|                                               ----------------------------- |
| Approx. total storage required per process          549.5 MB         0.0 MB |
|                                                                             |
| Requirements will fluctuate during execution and may exceed these estimates |
+-----------------------------------------------------------------------------+
Calculating finite basis set correction with  3 cut-off energies.
Calculating total energy with cut-off of  690.000 eV.
------------------------------------------------------------------------ <-- SCF
SCF loop      Energy           Fermi           Energy gain       Timer   <-- SCF
                               energy          per atom          (sec)   <-- SCF
------------------------------------------------------------------------ <-- SCF
Initial   8.70635512E+001  0.00000000E+000                         7.55  <-- SCF
      1  -4.03803976E+002  8.23862989E+000   1.22716882E+002      10.85  <-- SCF
          Max force change        1.466E-001                             <-- SCF
      2  -4.37612213E+002  5.48775192E+000   8.45205922E+000      14.44  <-- SCF
          Max force change        1.540E-001                             <-- SCF
      3  -4.39234589E+002  5.35967254E+000   4.05594128E-001      18.09  <-- SCF
          Max force change        5.127E-002                             <-- SCF
      4  -4.39151156E+002  5.32624178E+000  -2.08581592E-002      22.04  <-- SCF
          Max force change        8.625E-003                             <-- SCF
      5  -4.39139549E+002  5.31262644E+000  -2.90195537E-003      26.01  <-- SCF
          Max force change        5.446E-003                             <-- SCF
      6  -4.39139544E+002  5.31236851E+000  -1.11732642E-006      30.05  <-- SCF
          Max force change        1.399E-003                             <-- SCF
      7  -4.39139544E+002  5.31237227E+000  -8.26927452E-010      33.35  <-- SCF
          Max force change        2.835E-004                             <-- SCF
      8  -4.39139544E+002  5.31237970E+000  -3.19315081E-010      36.39  <-- SCF
          Max force change        1.599E-005                             <-- SCF
------------------------------------------------------------------------ <-- SCF
 
Final energy, E             =  -439.1319160005     eV
Final free energy (E-TS)    =  -439.1395441425     eV
(energies not corrected for finite basis set)
 
NB est. 0K energy (E-0.5TS)      =  -439.1357300715     eV
 
Calculating total energy with cut-off of  695.000 eV.
------------------------------------------------------------------------ <-- SCF
SCF loop      Energy           Fermi           Energy gain       Timer   <-- SCF
                               energy          per atom          (sec)   <-- SCF
------------------------------------------------------------------------ <-- SCF
Initial  -4.39131916E+002  0.00000000E+000                        39.21  <-- SCF
      1  -4.39139544E+002  5.31237991E+000   1.90710226E-003      41.16  <-- SCF
          Max force change        3.966E-006                             <-- SCF
      2  -4.39139544E+002  5.31237991E+000   1.06583372E-011      44.03  <-- SCF
          Max force change        9.618E-008                             <-- SCF
      3  -4.39139544E+002  5.31237997E+000   1.74013668E-012      46.90  <-- SCF
          Max force change        7.351E-006                             <-- SCF
      4  -4.39139544E+002  5.31237999E+000   2.90022780E-013      49.76  <-- SCF
          Max force change        5.018E-007                             <-- SCF
------------------------------------------------------------------------ <-- SCF
 
Final energy, E             =  -439.1319162675     eV
Final free energy (E-TS)    =  -439.1395444096     eV
(energies not corrected for finite basis set)
 
NB est. 0K energy (E-0.5TS)      =  -439.1357303386     eV
 
Calculating total energy with cut-off of  700.000 eV.
------------------------------------------------------------------------ <-- SCF
SCF loop      Energy           Fermi           Energy gain       Timer   <-- SCF
                               energy          per atom          (sec)   <-- SCF
------------------------------------------------------------------------ <-- SCF
Initial  -4.39131916E+002  0.00000000E+000                        52.54  <-- SCF
      1  -4.39139545E+002  5.31237996E+000   1.90710089E-003      54.47  <-- SCF
          Max force change        8.846E-008                             <-- SCF
      2  -4.39139545E+002  5.31237996E+000   8.84569480E-012      57.39  <-- SCF
          Max force change        1.606E-008                             <-- SCF
      3  -4.39139545E+002  5.31237999E+000   2.70687928E-012      60.29  <-- SCF
          Max force change        1.869E-007                             <-- SCF
      4  -4.39139545E+002  5.31238000E+000   4.83371300E-014      63.19  <-- SCF
          Max force change        3.558E-008                             <-- SCF
------------------------------------------------------------------------ <-- SCF
 
Final energy, E             =  -439.1319165288     eV
Final free energy (E-TS)    =  -439.1395446711     eV
(energies not corrected for finite basis set)
 
NB est. 0K energy (E-0.5TS)      =  -439.1357305999     eV
 
 For future reference: finite basis dEtot/dlog(Ecut) =      -0.000037eV
 Total energy corrected for finite basis set =    -439.139545 eV
 
 ******************* Unconstrained Forces *******************
 *                                                          *
 *               Cartesian components (eV/A)                *
 * -------------------------------------------------------- *
 *                         x            y            z      *
 *                                                          *
 * Al              1     -0.00000     -0.00000     -0.00000 *
 * Al              2      0.00000      0.00000     -0.00000 *
 * Al              3      0.00000     -0.00000      0.00000 *
 * Al              4     -0.00000      0.00000      0.00000 *
 *                                                          *
 ************************************************************
 
 ******************** Constrained Forces ********************
 *                                                          *
 *               Cartesian components (eV/A)                *
 * -------------------------------------------------------- *
 *                         x            y            z      *
 *                                                          *
 * Al              1     -0.00000     -0.00000     -0.00000 *
 * Al              2      0.00000      0.00000     -0.00000 *
 * Al              3      0.00000     -0.00000      0.00000 *
 * Al              4     -0.00000      0.00000      0.00000 *
 *                                                          *
 ************************************************************
 
 ***************** Stress Tensor *****************
 *                                               *
 *          Cartesian components (GPa)           *
 * --------------------------------------------- *
 *             x             y             z     *
 *                                               *
 *  x      3.695504     -0.000000     -0.000000  *
 *  y     -0.000000      1.829467      0.697030  *
 *  z     -0.000000      0.697030      1.829467  *
 *                                               *
 *  Pressure:   -2.4515                          *
 *                                               *
 *************************************************
 
 Pseudo atomic calculation performed for Al 3s2 3p1
 
 Converged in 18 iterations to a total energy of -105.5954 eV
 
Charge spilling parameter for spin component 1 = 1.54%
 
     Atomic Populations (Mulliken)
     -----------------------------
Species          Ion     s      p      d      f     Total  Charge (e)
=====================================================================
  Al              1     1.13   1.87   0.00   0.00   3.00     0.00
  Al              2     1.13   1.87   0.00   0.00   3.00     0.00
  Al              3     1.13   1.87   0.00   0.00   3.00     0.00
  Al              4     1.13   1.87   0.00   0.00   3.00     0.00
=====================================================================
 
                 Bond                   Population      Length (A)
======================================================================
              Al 2 -- Al 3                   0.44        2.80014
              Al 1 -- Al 4                   0.44        2.80014
              Al 3 -- Al 4                   0.22        2.85692
              Al 2 -- Al 4                   0.22        2.85692
              Al 1 -- Al 3                   0.22        2.85692
              Al 1 -- Al 2                   0.22        2.85692
======================================================================
 
 
 A BibTeX formatted list of references used in this run has been written to 
 castep.bib
 
Initialisation time =      4.52 s
Calculation time    =     66.47 s
Finalisation time   =      0.15 s
Total time          =     71.14 s
Peak Memory Use     = 724148 kB
  
Overall parallel efficiency rating: Excellent (91%)                             
  
Data was distributed by:-
k-point (32-way); efficiency rating: Excellent (92%)                            
  
Parallel notes:
1) Calculation only took 71.0 s, so efficiency estimates may be inaccurate.     
