 +-------------------------------------------------+
 |                                                 |
 |      CCC   AA    SSS  TTTTT  EEEEE  PPPP        |
 |     C     A  A  S       T    E      P   P       |
 |     C     AAAA   SS     T    EEE    PPPP        |
 |     C     A  A     S    T    E      P           |
 |      CCC  A  A  SSS     T    EEEEE  P           |
 |                                                 |
 +-------------------------------------------------+
 |                                                 |
 | Welcome to Academic Release CASTEP version 17.21|          
 | Ab Initio Total Energy Program                  |
 |                                                 |
 | Authors:                                        |
 | M. Segall, M. Probert, C. Pickard, P. Hasnip,   |
 | S. Clark, K. Refson, J. R. Yates, M. Payne      |
 |                                                 |
 | Contributors:                                   |
 | P. Lindan, P. Haynes, J. White, V. Milman,      |
 | N. Govind, M. Gibson, P. Tulip, V. Cocula,      |
 | B. Montanari, D. Quigley, M. Glover,            |
 | L. Bernasconi, A. Perlov, M. Plummer,           |
 | E. McNellis, J. Meyer, J. Gale, D. Jochym       |
 | J. Aarons, B. Walker, R. Gillen, D. Jones       |
 | T. Green, I. J. Bush, C. J. Armstrong,          |
 | E. J. Higgins, E. L. Brown, M. S. McFly,        |
 | J. Wilkins, B-C. Shih, P. J. P. Byrne           |
 |                                                 |
 | Copyright (c) 2000 - 2017                       |
 |                                                 |
 |     Distributed under the terms of an           |
 |     Agreement between the United Kingdom        |
 |     Car-Parrinello (UKCP) Consortium,           |
 |     Daresbury Laboratory and Accelrys, Inc.     |
 |                                                 |
 | Please cite                                     |
 |                                                 |
 |     "First principles methods using CASTEP"     |
 |                                                 |
 |         Zeitschrift fuer Kristallographie       |
 |           220(5-6) pp. 567-570 (2005)           |
 |                                                 |
 | S. J. Clark, M. D. Segall, C. J. Pickard,       |
 | P. J. Hasnip, M. J. Probert, K. Refson,         |
 | M. C. Payne                                     |
 |                                                 |
 |       in all publications arising from          |
 |              your use of CASTEP                 |
 |                                                 |
 +-------------------------------------------------+


 Compiled for linux_x86_64_gfortran6.0-XT on Fri, 21 Jul 2017 10:20:05 +0100
 from code version 056e886bd5a1+ Castep172_branch Mon, 15 May 2017 14:45:35 +0100
 Compiler: GNU Fortran 6.3.0; Optimisation: fast
 MATHLIBS: Intel MKL(2017.0.0) (LAPACK version 3.6.0)
 FFT Lib : fftw3 version commercial-fftw-3.3.4-sse2-avx
 Fundamental constants values: CODATA 2010

 Run started: Sun, 17 Nov 2019 20:56:44 +0000

 Atomic calculation performed for Ni: 1s2 2s2 2p6 3s2 3p6 3d8 4s2

 Converged in 111 iterations to an ae energy of -41308.385 eV

   ============================================================                
   | Pseudopotential Report - Date of generation 17-11-2019   |                
   ------------------------------------------------------------                
   | Element: Ni Ionic charge: 10.00 Level of theory: LDA     |                
   | Atomic Solver: Koelling-Harmon                           |                
   |                                                          |                
   |               Reference Electronic Structure             |                
   |         Orbital         Occupation         Energy        |                
   |            3d              8.000           -0.336        |                
   |            4s              2.000           -0.216        |                
   |                                                          |                
   |                 Pseudopotential Definition               |                
   |        Beta     l      e      Rc     scheme   norm       |                
   |          1      0   -0.216   2.401     qc      0         |                
   |          2      0    0.250   2.401     qc      0         |                
   |          3      1    0.000   2.401     qc      0         |                
   |          4      1    0.250   2.401     qc      0         |                
   |          5      2   -0.336   1.999     qc      0         |                
   |          6      2    0.250   1.999     qc      0         |                
   |         loc     3    0.000   2.401     pn      0         |                
   |                                                          |                
   | Augmentation charge Rinner = 1.001                       |                
   | Partial core correction Rc = 1.001                       |                
   ------------------------------------------------------------                
   | "3|2.4|2.4|1.0|8|9|10|40:41:32U2U2(qc=5.5)"              |                
   ------------------------------------------------------------                
   |      Author: Chris J. Pickard, Cambridge University      |                
   ============================================================                

 Pseudo atomic calculation performed for Ni 3d8 4s2

 Converged in 39 iterations to a total energy of -1362.4764 eV

 Calculation parallelised over 48 processes.
 Data is distributed by k-point(48-way)

 ************************************ Title ************************************
 

 ***************************** General Parameters ******************************
  
 output verbosity                               : normal  (1)
 write checkpoint data to                       : castep.check
 type of calculation                            : single point energy
 stress calculation                             : on
 density difference calculation                 : off
 electron localisation func (ELF) calculation   : off
 Hirshfeld analysis                             : off
 unlimited duration calculation
 timing information                             : on
 memory usage estimate                          : on
 write final potential to formatted file        : off
 write final density to formatted file          : off
 write BibTeX reference list                    : on
 write OTFG pseudopotential files               : on
 write electrostatic potential file             : on
 write bands file                               : on
 checkpoint writing                             : off
  
 output         length unit                     : A
 output           mass unit                     : amu
 output           time unit                     : ps
 output         charge unit                     : e
 output           spin unit                     : hbar/2
 output         energy unit                     : eV
 output          force unit                     : eV/A
 output       velocity unit                     : A/ps
 output       pressure unit                     : GPa
 output     inv_length unit                     : 1/A
 output      frequency unit                     : cm-1
 output force constant unit                     : eV/A**2
 output         volume unit                     : A**3
 output   IR intensity unit                     : (D/A)**2/amu
 output         dipole unit                     : D
 output         efield unit                     : eV/A/e
 output        entropy unit                     : J/mol/K
  
 wavefunctions paging                           : none
 random number generator seed                   : randomised (205646088)
 data distribution                              : optimal for this architecture
 optimization strategy                          : balance speed and memory

 *********************** Exchange-Correlation Parameters ***********************
  
 using functional                               : Local Density Approximation
 relativistic treatment                         : Koelling-Harmon
 DFT+D: Semi-empirical dispersion correction    : off

 ************************* Pseudopotential Parameters **************************
  
 pseudopotential representation                 : reciprocal space
 <beta|phi> representation                      : reciprocal space
 spin-orbit coupling                            : off

 **************************** Basis Set Parameters *****************************
  
 plane wave basis set cut-off                   :   500.0000   eV
 size of standard grid                          :     1.7500
 size of   fine   gmax                          :    20.0476   1/A
 finite basis set correction                    : automatic
 number of sample energies                      :          3
           sample  spacing                      :     5.0000   eV

 **************************** Electronic Parameters ****************************
  
 number of  electrons                           :  20.00    
 net charge of system                           :  0.000    
 treating system as non-spin-polarized
 number of bands                                :         14

 ********************* Electronic Minimization Parameters **********************
  
 Method: Treating system as metallic with density mixing treatment of electrons,
         and number of  SD  steps               :          1
         and number of  CG  steps               :          4
  
 total energy / atom convergence tol.           : 0.1000E-04   eV
 eigen-energy convergence tolerance             : 0.1000E-05   eV
 max force / atom convergence tol.              : ignored
 convergence tolerance window                   :          3   cycles
 max. number of SCF cycles                      :        250
 number of fixed-spin iterations                :         10
 smearing scheme                                : Gaussian
 smearing width                                 : 0.1000       eV
 Fermi energy convergence tolerance             : 0.2721E-13   eV
 periodic dipole correction                     : NONE

 ************************** Density Mixing Parameters **************************
  
 density-mixing scheme                          : Pulay
 max. length of mixing history                  :         20
 charge density mixing amplitude                : 0.8000    
 cut-off energy for mixing                      :  500.0       eV

 *********************** Population Analysis Parameters ************************
  
 Population analysis with cutoff                :  3.000       A

 *******************************************************************************
  

                           -------------------------------
                                      Unit Cell
                           -------------------------------
        Real Lattice(A)                      Reciprocal Lattice(1/A)
   2.4741670   0.0000000   0.0000000        2.5395154   0.0000000   0.0000000
   0.0000000   2.4741670   0.0000000        0.0000000   2.5395154   0.0000000
   0.0000000   0.0000000   3.4990000        0.0000000   0.0000000   1.7957089

                       Lattice parameters(A)       Cell Angles
                    a =    2.474167          alpha =   90.000000
                    b =    2.474167          beta  =   90.000000
                    c =    3.499000          gamma =   90.000000

                       Current cell volume =   21.419137       A**3
                                   density =    5.480464   AMU/A**3
                                           =    9.100523     g/cm^3

                           -------------------------------
                                     Cell Contents
                           -------------------------------
                         Total number of ions in cell =    2
                      Total number of species in cell =    1
                        Max number of any one species =    2

            xxxxxxxxxxxxxxxxxxxxxxxxxxxxxxxxxxxxxxxxxxxxxxxxxxxxxxxxxxxx
            x  Element    Atom        Fractional coordinates of atoms  x
            x            Number           u          v          w      x
            x----------------------------------------------------------x
            x  Ni           1         0.000000   0.000000   0.000000   x 
            x  Ni           2         0.500000   0.500000   0.500000   x 
            xxxxxxxxxxxxxxxxxxxxxxxxxxxxxxxxxxxxxxxxxxxxxxxxxxxxxxxxxxxx


                         No user defined ionic velocities

                           -------------------------------
                                   Details of Species
                           -------------------------------

                               Mass of species in AMU
                                    Ni   58.6934000

                          Electric Quadrupole Moment (Barn)
                                    Ni    0.1620000 Isotope 61

                          Files used for pseudopotentials:
                                    Ni 3|2.4|2.4|1.0|8|9|10|40:41:32U2U2(qc=5.5)

                           -------------------------------
                              k-Points For BZ Sampling
                           -------------------------------
                       MP grid size for SCF calculation is 14 14 10
                            with an offset of   0.000  0.000  0.000
                       Number of kpoints used =           980

                           -------------------------------
                               Symmetry and Constraints
                           -------------------------------

                      Cell is a supercell containing 2 primitive cells
                      Maximum deviation from symmetry =  0.00000         ANG

                      Number of symmetry operations   =           1
                      Number of ionic constraints     =           3
                      Point group of crystal =     1: C1, 1, 1
                      Space group of crystal =   225: Fm-3m, -F 4 2 3

             Set iprint > 1 for details on symmetry rotations/translations

                         Centre of mass is constrained
             Set iprint > 1 for details of linear ionic constraints

                         Number of cell constraints= 0
                         Cell constraints are:  1 2 3 4 5 6

                         External pressure/stress (GPa)
                          0.00000   0.00000   0.00000
                                    0.00000   0.00000
                                              0.00000
  
+---------------- MEMORY AND SCRATCH DISK ESTIMATES PER PROCESS --------------+
|                                                     Memory          Disk    |
| Baseline code, static data and system overhead      184.0 MB         0.0 MB |
| BLAS internal memory storage                          0.0 MB         0.0 MB |
| Model and support data                               24.0 MB         8.4 MB |
| Electronic energy minimisation requirements           7.7 MB         0.0 MB |
| Force calculation requirements                        0.9 MB         0.0 MB |
| Stress calculation requirements                       1.0 MB         0.0 MB |
|                                               ----------------------------- |
| Approx. total storage required per process          215.6 MB         8.4 MB |
|                                                                             |
| Requirements will fluctuate during execution and may exceed these estimates |
+-----------------------------------------------------------------------------+
Calculating finite basis set correction with  3 cut-off energies.
Calculating total energy with cut-off of  490.000 eV.
------------------------------------------------------------------------ <-- SCF
SCF loop      Energy           Fermi           Energy gain       Timer   <-- SCF
                               energy          per atom          (sec)   <-- SCF
------------------------------------------------------------------------ <-- SCF
Initial  -2.31280378E+003  0.00000000E+000                        10.02  <-- SCF
      1  -2.71184447E+003  6.24569804E+000   1.99520348E+002      10.46  <-- SCF
      2  -2.74117135E+003  3.43119762E+000   1.46634365E+001      10.82  <-- SCF
      3  -2.74178290E+003  3.59970628E+000   3.05776690E-001      11.16  <-- SCF
      4  -2.74183324E+003  4.26409588E+000   2.51699109E-002      11.56  <-- SCF
      5  -2.74175451E+003  3.80155519E+000  -3.93656567E-002      11.96  <-- SCF
      6  -2.74175542E+003  3.82840653E+000   4.53028076E-004      12.36  <-- SCF
      7  -2.74175470E+003  3.82840781E+000  -3.58426860E-004      12.75  <-- SCF
      8  -2.74175473E+003  3.82843964E+000   1.43589650E-005      13.01  <-- SCF
      9  -2.74175473E+003  3.82844842E+000  -2.63388635E-007      13.27  <-- SCF
     10  -2.74175473E+003  3.82844627E+000   1.60051971E-008      13.53  <-- SCF
     11  -2.74175473E+003  3.82844753E+000   2.01643172E-009      13.79  <-- SCF
------------------------------------------------------------------------ <-- SCF
 
Final energy, E             =  -2741.717735879     eV
Final free energy (E-TS)    =  -2741.754727018     eV
(energies not corrected for finite basis set)
 
NB est. 0K energy (E-0.5TS)      =  -2741.736231449     eV
 
Calculating total energy with cut-off of  495.000 eV.
------------------------------------------------------------------------ <-- SCF
SCF loop      Energy           Fermi           Energy gain       Timer   <-- SCF
                               energy          per atom          (sec)   <-- SCF
------------------------------------------------------------------------ <-- SCF
Initial  -2.74171774E+003  0.00000000E+000                        13.90  <-- SCF
      1  -2.74175479E+003  3.82844554E+000   1.85283500E-002      14.25  <-- SCF
      2  -2.74175479E+003  3.82844554E+000   1.97795536E-010      14.52  <-- SCF
      3  -2.74175480E+003  3.82842685E+000   5.11795795E-006      14.78  <-- SCF
      4  -2.74175479E+003  3.82842791E+000  -5.37137521E-006      15.04  <-- SCF
------------------------------------------------------------------------ <-- SCF
 
Final energy, E             =  -2741.717801109     eV
Final free energy (E-TS)    =  -2741.754792076     eV
(energies not corrected for finite basis set)
 
NB est. 0K energy (E-0.5TS)      =  -2741.736296593     eV
 
Calculating total energy with cut-off of  500.000 eV.
------------------------------------------------------------------------ <-- SCF
SCF loop      Energy           Fermi           Energy gain       Timer   <-- SCF
                               energy          per atom          (sec)   <-- SCF
------------------------------------------------------------------------ <-- SCF
Initial  -2.74171780E+003  0.00000000E+000                        15.15  <-- SCF
      1  -2.74175486E+003  3.82849125E+000   1.85305572E-002      15.51  <-- SCF
      2  -2.74175486E+003  3.82849125E+000   1.26585276E-009      15.77  <-- SCF
      3  -2.74175553E+003  3.82849344E+000   3.33523607E-004      16.17  <-- SCF
      4  -2.74175483E+003  3.82835186E+000  -3.50058822E-004      16.57  <-- SCF
      5  -2.74175486E+003  3.82832327E+000   1.49112040E-005      16.83  <-- SCF
      6  -2.74175486E+003  3.82848618E+000   6.23682388E-008      17.09  <-- SCF
      7  -2.74175486E+003  3.82843737E+000  -3.56263983E-009      17.36  <-- SCF
------------------------------------------------------------------------ <-- SCF
 
Final energy, E             =  -2741.717868549     eV
Final free energy (E-TS)    =  -2741.754859432     eV
(energies not corrected for finite basis set)
 
NB est. 0K energy (E-0.5TS)      =  -2741.736363990     eV
 
 For future reference: finite basis dEtot/dlog(Ecut) =      -0.006571eV
 Total energy corrected for finite basis set =   -2741.754860 eV

 ******************* Unconstrained Forces *******************
 *                                                          *
 *               Cartesian components (eV/A)                *
 * -------------------------------------------------------- *
 *                         x            y            z      *
 *                                                          *
 * Ni              1     -0.00000     -0.00000      0.00000 *
 * Ni              2      0.00000      0.00000     -0.00000 *
 *                                                          *
 ************************************************************

 ******************** Constrained Forces ********************
 *                                                          *
 *               Cartesian components (eV/A)                *
 * -------------------------------------------------------- *
 *                         x            y            z      *
 *                                                          *
 * Ni              1     -0.00000     -0.00000      0.00000 *
 * Ni              2      0.00000      0.00000     -0.00000 *
 *                                                          *
 ************************************************************

 ***************** Stress Tensor *****************
 *                                               *
 *          Cartesian components (GPa)           *
 * --------------------------------------------- *
 *             x             y             z     *
 *                                               *
 *  x     14.854971      0.000000      0.000033  *
 *  y      0.000000     14.855037      0.000047  *
 *  z      0.000033      0.000047     14.714257  *
 *                                               *
 *  Pressure:  -14.8081                          *
 *                                               *
 *************************************************

 Pseudo atomic calculation performed for Ni 3d8 4s2

 Converged in 39 iterations to a total energy of -1362.4764 eV

Charge spilling parameter for spin component 1 = 0.13%

     Atomic Populations (Mulliken)
     -----------------------------
Species          Ion     s      p      d      f     Total  Charge (e)
=====================================================================
  Ni              1     0.43   0.91   8.67   0.00  10.00     0.00
  Ni              2     0.43   0.91   8.67   0.00  10.00    -0.00
=====================================================================

                 Bond                   Population      Length (A)
======================================================================
              Ni 1 -- Ni 2                   0.18        2.47417
======================================================================

 
 A BibTeX formatted list of references used in this run has been written to 
 castep.bib
 
Initialisation time =      8.38 s
Calculation time    =      9.86 s
Finalisation time   =      0.03 s
Total time          =     18.26 s
Peak Memory Use     = 454988 kB
  
Overall parallel efficiency rating: Mediocre (53%)                              
  
Data was distributed by:-
k-point (48-way); efficiency rating: Mediocre (53%)                             
  
Parallel notes:
1) Calculation only took 18.2 s, so efficiency estimates may be inaccurate.     
 +-------------------------------------------------+
 |                                                 |
 |      CCC   AA    SSS  TTTTT  EEEEE  PPPP        |
 |     C     A  A  S       T    E      P   P       |
 |     C     AAAA   SS     T    EEE    PPPP        |
 |     C     A  A     S    T    E      P           |
 |      CCC  A  A  SSS     T    EEEEE  P           |
 |                                                 |
 +-------------------------------------------------+
 |                                                 |
 | Welcome to Academic Release CASTEP version 17.21|          
 | Ab Initio Total Energy Program                  |
 |                                                 |
 | Authors:                                        |
 | M. Segall, M. Probert, C. Pickard, P. Hasnip,   |
 | S. Clark, K. Refson, J. R. Yates, M. Payne      |
 |                                                 |
 | Contributors:                                   |
 | P. Lindan, P. Haynes, J. White, V. Milman,      |
 | N. Govind, M. Gibson, P. Tulip, V. Cocula,      |
 | B. Montanari, D. Quigley, M. Glover,            |
 | L. Bernasconi, A. Perlov, M. Plummer,           |
 | E. McNellis, J. Meyer, J. Gale, D. Jochym       |
 | J. Aarons, B. Walker, R. Gillen, D. Jones       |
 | T. Green, I. J. Bush, C. J. Armstrong,          |
 | E. J. Higgins, E. L. Brown, M. S. McFly,        |
 | J. Wilkins, B-C. Shih, P. J. P. Byrne           |
 |                                                 |
 | Copyright (c) 2000 - 2017                       |
 |                                                 |
 |     Distributed under the terms of an           |
 |     Agreement between the United Kingdom        |
 |     Car-Parrinello (UKCP) Consortium,           |
 |     Daresbury Laboratory and Accelrys, Inc.     |
 |                                                 |
 | Please cite                                     |
 |                                                 |
 |     "First principles methods using CASTEP"     |
 |                                                 |
 |         Zeitschrift fuer Kristallographie       |
 |           220(5-6) pp. 567-570 (2005)           |
 |                                                 |
 | S. J. Clark, M. D. Segall, C. J. Pickard,       |
 | P. J. Hasnip, M. J. Probert, K. Refson,         |
 | M. C. Payne                                     |
 |                                                 |
 |       in all publications arising from          |
 |              your use of CASTEP                 |
 |                                                 |
 +-------------------------------------------------+


 Compiled for linux_x86_64_gfortran6.0-XT on Fri, 21 Jul 2017 10:20:05 +0100
 from code version 056e886bd5a1+ Castep172_branch Mon, 15 May 2017 14:45:35 +0100
 Compiler: GNU Fortran 6.3.0; Optimisation: fast
 MATHLIBS: Intel MKL(2017.0.0) (LAPACK version 3.6.0)
 FFT Lib : fftw3 version commercial-fftw-3.3.4-sse2-avx
 Fundamental constants values: CODATA 2010

 Run started: Sun, 17 Nov 2019 20:57:44 +0000

 Atomic calculation performed for Ni: 1s2 2s2 2p6 3s2 3p6 3d8 4s2

 Converged in 111 iterations to an ae energy of -41308.385 eV

   ============================================================                
   | Pseudopotential Report - Date of generation 17-11-2019   |                
   ------------------------------------------------------------                
   | Element: Ni Ionic charge: 10.00 Level of theory: LDA     |                
   | Atomic Solver: Koelling-Harmon                           |                
   |                                                          |                
   |               Reference Electronic Structure             |                
   |         Orbital         Occupation         Energy        |                
   |            3d              8.000           -0.336        |                
   |            4s              2.000           -0.216        |                
   |                                                          |                
   |                 Pseudopotential Definition               |                
   |        Beta     l      e      Rc     scheme   norm       |                
   |          1      0   -0.216   2.401     qc      0         |                
   |          2      0    0.250   2.401     qc      0         |                
   |          3      1    0.000   2.401     qc      0         |                
   |          4      1    0.250   2.401     qc      0         |                
   |          5      2   -0.336   1.999     qc      0         |                
   |          6      2    0.250   1.999     qc      0         |                
   |         loc     3    0.000   2.401     pn      0         |                
   |                                                          |                
   | Augmentation charge Rinner = 1.001                       |                
   | Partial core correction Rc = 1.001                       |                
   ------------------------------------------------------------                
   | "3|2.4|2.4|1.0|8|9|10|40:41:32U2U2(qc=5.5)"              |                
   ------------------------------------------------------------                
   |      Author: Chris J. Pickard, Cambridge University      |                
   ============================================================                

 Pseudo atomic calculation performed for Ni 3d8 4s2

 Converged in 39 iterations to a total energy of -1362.4764 eV

 Calculation parallelised over 48 processes.
 Data is distributed by k-point(48-way)

 ************************************ Title ************************************
 

 ***************************** General Parameters ******************************
  
 output verbosity                               : normal  (1)
 write checkpoint data to                       : castep.check
 type of calculation                            : single point energy
 stress calculation                             : on
 density difference calculation                 : off
 electron localisation func (ELF) calculation   : off
 Hirshfeld analysis                             : off
 unlimited duration calculation
 timing information                             : on
 memory usage estimate                          : on
 write final potential to formatted file        : off
 write final density to formatted file          : off
 write BibTeX reference list                    : on
 write OTFG pseudopotential files               : on
 write electrostatic potential file             : on
 write bands file                               : on
 checkpoint writing                             : off
  
 output         length unit                     : A
 output           mass unit                     : amu
 output           time unit                     : ps
 output         charge unit                     : e
 output           spin unit                     : hbar/2
 output         energy unit                     : eV
 output          force unit                     : eV/A
 output       velocity unit                     : A/ps
 output       pressure unit                     : GPa
 output     inv_length unit                     : 1/A
 output      frequency unit                     : cm-1
 output force constant unit                     : eV/A**2
 output         volume unit                     : A**3
 output   IR intensity unit                     : (D/A)**2/amu
 output         dipole unit                     : D
 output         efield unit                     : eV/A/e
 output        entropy unit                     : J/mol/K
  
 wavefunctions paging                           : none
 random number generator seed                   : randomised (205745351)
 data distribution                              : optimal for this architecture
 optimization strategy                          : maximize speed(+++)

 *********************** Exchange-Correlation Parameters ***********************
  
 using functional                               : Local Density Approximation
 relativistic treatment                         : Koelling-Harmon
 DFT+D: Semi-empirical dispersion correction    : off

 ************************* Pseudopotential Parameters **************************
  
 pseudopotential representation                 : reciprocal space
 <beta|phi> representation                      : reciprocal space
 spin-orbit coupling                            : off

 **************************** Basis Set Parameters *****************************
  
 plane wave basis set cut-off                   :   500.0000   eV
 size of standard grid                          :     1.7500
 size of   fine   gmax                          :    20.0476   1/A
 finite basis set correction                    : automatic
 number of sample energies                      :          3
           sample  spacing                      :     5.0000   eV

 **************************** Electronic Parameters ****************************
  
 number of  electrons                           :  20.00    
 net charge of system                           :  0.000    
 treating system as non-spin-polarized
 number of bands                                :         14

 ********************* Electronic Minimization Parameters **********************
  
 Method: Treating system as metallic with density mixing treatment of electrons,
         and number of  SD  steps               :          1
         and number of  CG  steps               :          4
  
 total energy / atom convergence tol.           : 0.1000E-04   eV
 eigen-energy convergence tolerance             : 0.1000E-05   eV
 max force / atom convergence tol.              : ignored
 convergence tolerance window                   :          3   cycles
 max. number of SCF cycles                      :        250
 number of fixed-spin iterations                :         10
 smearing scheme                                : Gaussian
 smearing width                                 : 0.1000       eV
 Fermi energy convergence tolerance             : 0.2721E-13   eV
 periodic dipole correction                     : NONE

 ************************** Density Mixing Parameters **************************
  
 density-mixing scheme                          : Pulay
 max. length of mixing history                  :         20
 charge density mixing amplitude                : 0.8000    
 cut-off energy for mixing                      :  500.0       eV

 *********************** Population Analysis Parameters ************************
  
 Population analysis with cutoff                :  3.000       A

 *******************************************************************************
  

                           -------------------------------
                                      Unit Cell
                           -------------------------------
        Real Lattice(A)                      Reciprocal Lattice(1/A)
   2.4990320   0.0000000   0.0000000        2.5142476   0.0000000   0.0000000
   0.0000000   2.4990320   0.0000000        0.0000000   2.5142476   0.0000000
   0.0000000   0.0000000   3.5341660        0.0000000   0.0000000   1.7778410

                       Lattice parameters(A)       Cell Angles
                    a =    2.499032          alpha =   90.000000
                    b =    2.499032          beta  =   90.000000
                    c =    3.534166          gamma =   90.000000

                       Current cell volume =   22.071435       A**3
                                   density =    5.318494   AMU/A**3
                                           =    8.831567     g/cm^3

                           -------------------------------
                                     Cell Contents
                           -------------------------------
                         Total number of ions in cell =    2
                      Total number of species in cell =    1
                        Max number of any one species =    2

            xxxxxxxxxxxxxxxxxxxxxxxxxxxxxxxxxxxxxxxxxxxxxxxxxxxxxxxxxxxx
            x  Element    Atom        Fractional coordinates of atoms  x
            x            Number           u          v          w      x
            x----------------------------------------------------------x
            x  Ni           1         0.000000   0.000000   0.000000   x 
            x  Ni           2         0.508415   0.508415   0.505950   x 
            xxxxxxxxxxxxxxxxxxxxxxxxxxxxxxxxxxxxxxxxxxxxxxxxxxxxxxxxxxxx


                         No user defined ionic velocities

                           -------------------------------
                                   Details of Species
                           -------------------------------

                               Mass of species in AMU
                                    Ni   58.6934000

                          Electric Quadrupole Moment (Barn)
                                    Ni    0.1620000 Isotope 61

                          Files used for pseudopotentials:
                                    Ni 3|2.4|2.4|1.0|8|9|10|40:41:32U2U2(qc=5.5)

                           -------------------------------
                              k-Points For BZ Sampling
                           -------------------------------
                       MP grid size for SCF calculation is 14 14 10
                            with an offset of   0.000  0.000  0.000
                       Number of kpoints used =           980

                           -------------------------------
                               Symmetry and Constraints
                           -------------------------------

                      Maximum deviation from symmetry =  0.00000         ANG

                      Number of symmetry operations   =           1
                      Number of ionic constraints     =           3
                      Point group of crystal =     1: C1, 1, 1
                      Space group of crystal =    12: C2/m, -C 2y

             Set iprint > 1 for details on symmetry rotations/translations

                         Centre of mass is constrained
             Set iprint > 1 for details of linear ionic constraints

                         Number of cell constraints= 0
                         Cell constraints are:  1 2 3 4 5 6

                         External pressure/stress (GPa)
                          0.00000   0.00000   0.00000
                                    0.00000   0.00000
                                              0.00000
  
+---------------- MEMORY AND SCRATCH DISK ESTIMATES PER PROCESS --------------+
|                                                     Memory          Disk    |
| Baseline code, static data and system overhead      184.0 MB         0.0 MB |
| BLAS internal memory storage                          0.0 MB         0.0 MB |
| Model and support data                               32.5 MB         0.0 MB |
| Electronic energy minimisation requirements           8.0 MB         0.0 MB |
| Force calculation requirements                        0.9 MB         0.0 MB |
| Stress calculation requirements                       1.0 MB         0.0 MB |
|                                               ----------------------------- |
| Approx. total storage required per process          224.4 MB         0.0 MB |
|                                                                             |
| Requirements will fluctuate during execution and may exceed these estimates |
+-----------------------------------------------------------------------------+
Calculating finite basis set correction with  3 cut-off energies.
Calculating total energy with cut-off of  490.000 eV.
------------------------------------------------------------------------ <-- SCF
SCF loop      Energy           Fermi           Energy gain       Timer   <-- SCF
                               energy          per atom          (sec)   <-- SCF
------------------------------------------------------------------------ <-- SCF
Initial  -2.31164143E+003  0.00000000E+000                         8.88  <-- SCF
      1  -2.71093439E+003  6.11022657E+000   1.99646479E+002       9.32  <-- SCF
      2  -2.74108092E+003  3.08838231E+000   1.50732621E+001       9.68  <-- SCF
      3  -2.74172132E+003  3.27248970E+000   3.20202021E-001      10.03  <-- SCF
      4  -2.74181006E+003  4.11029221E+000   4.43707034E-002      10.44  <-- SCF
      5  -2.74168018E+003  3.53014563E+000  -6.49414967E-002      10.84  <-- SCF
      6  -2.74168491E+003  3.55556285E+000   2.36406315E-003      11.25  <-- SCF
      7  -2.74168059E+003  3.55545145E+000  -2.15726211E-003      11.66  <-- SCF
      8  -2.74168073E+003  3.55553034E+000   7.01496685E-005      11.93  <-- SCF
      9  -2.74168073E+003  3.55553831E+000  -1.48695472E-006      12.19  <-- SCF
     10  -2.74168073E+003  3.55552993E+000   8.37506516E-008      12.46  <-- SCF
     11  -2.74168073E+003  3.55553450E+000   1.79800589E-008      12.72  <-- SCF
------------------------------------------------------------------------ <-- SCF
 
Final energy, E             =  -2741.642407867     eV
Final free energy (E-TS)    =  -2741.680729793     eV
(energies not corrected for finite basis set)
 
NB est. 0K energy (E-0.5TS)      =  -2741.661568830     eV
 
Calculating total energy with cut-off of  495.000 eV.
------------------------------------------------------------------------ <-- SCF
SCF loop      Energy           Fermi           Energy gain       Timer   <-- SCF
                               energy          per atom          (sec)   <-- SCF
------------------------------------------------------------------------ <-- SCF
Initial  -2.74164241E+003  0.00000000E+000                        12.83  <-- SCF
      1  -2.74168080E+003  3.55552948E+000   1.91940809E-002      13.18  <-- SCF
      2  -2.74168080E+003  3.55552948E+000   4.52242189E-010      13.45  <-- SCF
      3  -2.74168091E+003  3.55554457E+000   5.49626616E-005      13.72  <-- SCF
      4  -2.74168080E+003  3.55551873E+000  -5.24782304E-005      13.99  <-- SCF
      5  -2.74168080E+003  3.55551934E+000  -2.73384135E-006      14.26  <-- SCF
      6  -2.74168080E+003  3.55554476E+000   1.01846333E-008      14.53  <-- SCF
------------------------------------------------------------------------ <-- SCF
 
Final energy, E             =  -2741.642473581     eV
Final free energy (E-TS)    =  -2741.680795537     eV
(energies not corrected for finite basis set)
 
NB est. 0K energy (E-0.5TS)      =  -2741.661634559     eV
 
Calculating total energy with cut-off of  500.000 eV.
------------------------------------------------------------------------ <-- SCF
SCF loop      Energy           Fermi           Energy gain       Timer   <-- SCF
                               energy          per atom          (sec)   <-- SCF
------------------------------------------------------------------------ <-- SCF
Initial  -2.74164247E+003  0.00000000E+000                        14.63  <-- SCF
      1  -2.74168086E+003  3.55547063E+000   1.91941478E-002      14.99  <-- SCF
      2  -2.74168086E+003  3.55547063E+000   1.89674898E-010      15.27  <-- SCF
      3  -2.74168087E+003  3.55562421E+000   1.79459677E-006      15.54  <-- SCF
      4  -2.74168086E+003  3.55560399E+000  -1.87453440E-006      15.81  <-- SCF
------------------------------------------------------------------------ <-- SCF
 
Final energy, E             =  -2741.642539805     eV
Final free energy (E-TS)    =  -2741.680861723     eV
(energies not corrected for finite basis set)
 
NB est. 0K energy (E-0.5TS)      =  -2741.661700764     eV
 
 For future reference: finite basis dEtot/dlog(Ecut) =      -0.006479eV
 Total energy corrected for finite basis set =   -2741.680861 eV

 ******************* Unconstrained Forces *******************
 *                                                          *
 *               Cartesian components (eV/A)                *
 * -------------------------------------------------------- *
 *                         x            y            z      *
 *                                                          *
 * Ni              1      0.08465      0.08465      0.14503 *
 * Ni              2     -0.08465     -0.08465     -0.14503 *
 *                                                          *
 ************************************************************

 ******************** Constrained Forces ********************
 *                                                          *
 *               Cartesian components (eV/A)                *
 * -------------------------------------------------------- *
 *                         x            y            z      *
 *                                                          *
 * Ni              1      0.08465      0.08465      0.14503 *
 * Ni              2     -0.08465     -0.08465     -0.14503 *
 *                                                          *
 ************************************************************

 ***************** Stress Tensor *****************
 *                                               *
 *          Cartesian components (GPa)           *
 * --------------------------------------------- *
 *             x             y             z     *
 *                                               *
 *  x     19.903320     -0.029277     -0.062418  *
 *  y     -0.029277     19.903374     -0.062426  *
 *  z     -0.062418     -0.062426     19.712750  *
 *                                               *
 *  Pressure:  -19.8398                          *
 *                                               *
 *************************************************

 Pseudo atomic calculation performed for Ni 3d8 4s2

 Converged in 39 iterations to a total energy of -1362.4764 eV

Charge spilling parameter for spin component 1 = 0.13%

     Atomic Populations (Mulliken)
     -----------------------------
Species          Ion     s      p      d      f     Total  Charge (e)
=====================================================================
  Ni              1     0.43   0.90   8.67   0.00  10.00     0.00
  Ni              2     0.43   0.90   8.67   0.00  10.00    -0.00
=====================================================================

                 Bond                   Population      Length (A)
======================================================================
              Ni 1 -- Ni 2                   0.27        2.46314
======================================================================

 
 A BibTeX formatted list of references used in this run has been written to 
 castep.bib
 
Initialisation time =      7.25 s
Calculation time    =      9.45 s
Finalisation time   =      7.14 s
Total time          =     23.83 s
Peak Memory Use     = 454984 kB
  
Overall parallel efficiency rating: Satisfactory (69%)                          
  
Data was distributed by:-
k-point (48-way); efficiency rating: Satisfactory (69%)                         
  
Parallel notes:
1) Calculation only took 16.7 s, so efficiency estimates may be inaccurate.     
 +-------------------------------------------------+
 |                                                 |
 |      CCC   AA    SSS  TTTTT  EEEEE  PPPP        |
 |     C     A  A  S       T    E      P   P       |
 |     C     AAAA   SS     T    EEE    PPPP        |
 |     C     A  A     S    T    E      P           |
 |      CCC  A  A  SSS     T    EEEEE  P           |
 |                                                 |
 +-------------------------------------------------+
 |                                                 |
 | Welcome to Academic Release CASTEP version 17.21|          
 | Ab Initio Total Energy Program                  |
 |                                                 |
 | Authors:                                        |
 | M. Segall, M. Probert, C. Pickard, P. Hasnip,   |
 | S. Clark, K. Refson, J. R. Yates, M. Payne      |
 |                                                 |
 | Contributors:                                   |
 | P. Lindan, P. Haynes, J. White, V. Milman,      |
 | N. Govind, M. Gibson, P. Tulip, V. Cocula,      |
 | B. Montanari, D. Quigley, M. Glover,            |
 | L. Bernasconi, A. Perlov, M. Plummer,           |
 | E. McNellis, J. Meyer, J. Gale, D. Jochym       |
 | J. Aarons, B. Walker, R. Gillen, D. Jones       |
 | T. Green, I. J. Bush, C. J. Armstrong,          |
 | E. J. Higgins, E. L. Brown, M. S. McFly,        |
 | J. Wilkins, B-C. Shih, P. J. P. Byrne           |
 |                                                 |
 | Copyright (c) 2000 - 2017                       |
 |                                                 |
 |     Distributed under the terms of an           |
 |     Agreement between the United Kingdom        |
 |     Car-Parrinello (UKCP) Consortium,           |
 |     Daresbury Laboratory and Accelrys, Inc.     |
 |                                                 |
 | Please cite                                     |
 |                                                 |
 |     "First principles methods using CASTEP"     |
 |                                                 |
 |         Zeitschrift fuer Kristallographie       |
 |           220(5-6) pp. 567-570 (2005)           |
 |                                                 |
 | S. J. Clark, M. D. Segall, C. J. Pickard,       |
 | P. J. Hasnip, M. J. Probert, K. Refson,         |
 | M. C. Payne                                     |
 |                                                 |
 |       in all publications arising from          |
 |              your use of CASTEP                 |
 |                                                 |
 +-------------------------------------------------+


 Compiled for linux_x86_64_gfortran6.0-XT on Fri, 21 Jul 2017 10:20:05 +0100
 from code version 056e886bd5a1+ Castep172_branch Mon, 15 May 2017 14:45:35 +0100
 Compiler: GNU Fortran 6.3.0; Optimisation: fast
 MATHLIBS: Intel MKL(2017.0.0) (LAPACK version 3.6.0)
 FFT Lib : fftw3 version commercial-fftw-3.3.4-sse2-avx
 Fundamental constants values: CODATA 2010

 Run started: Sun, 17 Nov 2019 20:58:25 +0000

 Atomic calculation performed for Ni: 1s2 2s2 2p6 3s2 3p6 3d8 4s2

 Converged in 111 iterations to an ae energy of -41308.385 eV

   ============================================================                
   | Pseudopotential Report - Date of generation 17-11-2019   |                
   ------------------------------------------------------------                
   | Element: Ni Ionic charge: 10.00 Level of theory: LDA     |                
   | Atomic Solver: Koelling-Harmon                           |                
   |                                                          |                
   |               Reference Electronic Structure             |                
   |         Orbital         Occupation         Energy        |                
   |            3d              8.000           -0.336        |                
   |            4s              2.000           -0.216        |                
   |                                                          |                
   |                 Pseudopotential Definition               |                
   |        Beta     l      e      Rc     scheme   norm       |                
   |          1      0   -0.216   2.401     qc      0         |                
   |          2      0    0.250   2.401     qc      0         |                
   |          3      1    0.000   2.401     qc      0         |                
   |          4      1    0.250   2.401     qc      0         |                
   |          5      2   -0.336   1.999     qc      0         |                
   |          6      2    0.250   1.999     qc      0         |                
   |         loc     3    0.000   2.401     pn      0         |                
   |                                                          |                
   | Augmentation charge Rinner = 1.001                       |                
   | Partial core correction Rc = 1.001                       |                
   ------------------------------------------------------------                
   | "3|2.4|2.4|1.0|8|9|10|40:41:32U2U2(qc=5.5)"              |                
   ------------------------------------------------------------                
   |      Author: Chris J. Pickard, Cambridge University      |                
   ============================================================                

 Pseudo atomic calculation performed for Ni 3d8 4s2

 Converged in 39 iterations to a total energy of -1362.4764 eV

 Calculation parallelised over 48 processes.
 Data is distributed by k-point(48-way)

 ************************************ Title ************************************
 

 ***************************** General Parameters ******************************
  
 output verbosity                               : normal  (1)
 write checkpoint data to                       : castep.check
 type of calculation                            : single point energy
 stress calculation                             : on
 density difference calculation                 : off
 electron localisation func (ELF) calculation   : off
 Hirshfeld analysis                             : off
 unlimited duration calculation
 timing information                             : on
 memory usage estimate                          : on
 write final potential to formatted file        : off
 write final density to formatted file          : off
 write BibTeX reference list                    : on
 write OTFG pseudopotential files               : on
 write electrostatic potential file             : on
 write bands file                               : on
 checkpoint writing                             : off
  
 output         length unit                     : A
 output           mass unit                     : amu
 output           time unit                     : ps
 output         charge unit                     : e
 output           spin unit                     : hbar/2
 output         energy unit                     : eV
 output          force unit                     : eV/A
 output       velocity unit                     : A/ps
 output       pressure unit                     : GPa
 output     inv_length unit                     : 1/A
 output      frequency unit                     : cm-1
 output force constant unit                     : eV/A**2
 output         volume unit                     : A**3
 output   IR intensity unit                     : (D/A)**2/amu
 output         dipole unit                     : D
 output         efield unit                     : eV/A/e
 output        entropy unit                     : J/mol/K
  
 wavefunctions paging                           : none
 random number generator seed                   : randomised (205827381)
 data distribution                              : optimal for this architecture
 optimization strategy                          : maximize speed(+++)

 *********************** Exchange-Correlation Parameters ***********************
  
 using functional                               : Local Density Approximation
 relativistic treatment                         : Koelling-Harmon
 DFT+D: Semi-empirical dispersion correction    : off

 ************************* Pseudopotential Parameters **************************
  
 pseudopotential representation                 : reciprocal space
 <beta|phi> representation                      : reciprocal space
 spin-orbit coupling                            : off

 **************************** Basis Set Parameters *****************************
  
 plane wave basis set cut-off                   :   500.0000   eV
 size of standard grid                          :     1.7500
 size of   fine   gmax                          :    20.0476   1/A
 finite basis set correction                    : automatic
 number of sample energies                      :          3
           sample  spacing                      :     5.0000   eV

 **************************** Electronic Parameters ****************************
  
 number of  electrons                           :  20.00    
 net charge of system                           :  0.000    
 treating system as non-spin-polarized
 number of bands                                :         14

 ********************* Electronic Minimization Parameters **********************
  
 Method: Treating system as metallic with density mixing treatment of electrons,
         and number of  SD  steps               :          1
         and number of  CG  steps               :          4
  
 total energy / atom convergence tol.           : 0.1000E-04   eV
 eigen-energy convergence tolerance             : 0.1000E-05   eV
 max force / atom convergence tol.              : ignored
 convergence tolerance window                   :          3   cycles
 max. number of SCF cycles                      :        250
 number of fixed-spin iterations                :         10
 smearing scheme                                : Gaussian
 smearing width                                 : 0.1000       eV
 Fermi energy convergence tolerance             : 0.2721E-13   eV
 periodic dipole correction                     : NONE

 ************************** Density Mixing Parameters **************************
  
 density-mixing scheme                          : Pulay
 max. length of mixing history                  :         20
 charge density mixing amplitude                : 0.8000    
 cut-off energy for mixing                      :  500.0       eV

 *********************** Population Analysis Parameters ************************
  
 Population analysis with cutoff                :  3.000       A

 *******************************************************************************
  

                           -------------------------------
                                      Unit Cell
                           -------------------------------
        Real Lattice(A)                      Reciprocal Lattice(1/A)
   2.4741670   0.0000000   0.0000000        2.5395154   0.0000000   0.0000000
   0.0000000   2.4741670   0.0000000        0.0000000   2.5395154   0.0000000
   0.0000000   0.0000000   3.4990000        0.0000000   0.0000000   1.7957089

                       Lattice parameters(A)       Cell Angles
                    a =    2.474167          alpha =   90.000000
                    b =    2.474167          beta  =   90.000000
                    c =    3.499000          gamma =   90.000000

                       Current cell volume =   21.419137       A**3
                                   density =    5.480464   AMU/A**3
                                           =    9.100523     g/cm^3

                           -------------------------------
                                     Cell Contents
                           -------------------------------
                         Total number of ions in cell =    2
                      Total number of species in cell =    1
                        Max number of any one species =    2

            xxxxxxxxxxxxxxxxxxxxxxxxxxxxxxxxxxxxxxxxxxxxxxxxxxxxxxxxxxxx
            x  Element    Atom        Fractional coordinates of atoms  x
            x            Number           u          v          w      x
            x----------------------------------------------------------x
            x  Ni           1         0.000000   0.000000   0.000000   x 
            x  Ni           2         0.500000   0.500000   0.500000   x 
            xxxxxxxxxxxxxxxxxxxxxxxxxxxxxxxxxxxxxxxxxxxxxxxxxxxxxxxxxxxx


                         No user defined ionic velocities

                           -------------------------------
                                   Details of Species
                           -------------------------------

                               Mass of species in AMU
                                    Ni   58.6934000

                          Electric Quadrupole Moment (Barn)
                                    Ni    0.1620000 Isotope 61

                          Files used for pseudopotentials:
                                    Ni 3|2.4|2.4|1.0|8|9|10|40:41:32U2U2(qc=5.5)

                           -------------------------------
                              k-Points For BZ Sampling
                           -------------------------------
                       MP grid size for SCF calculation is 14 14 10
                            with an offset of   0.000  0.000  0.000
                       Number of kpoints used =           980

                           -------------------------------
                               Symmetry and Constraints
                           -------------------------------

                      Cell is a supercell containing 2 primitive cells
                      Maximum deviation from symmetry =  0.00000         ANG

                      Number of symmetry operations   =           1
                      Number of ionic constraints     =           3
                      Point group of crystal =     1: C1, 1, 1
                      Space group of crystal =   225: Fm-3m, -F 4 2 3

             Set iprint > 1 for details on symmetry rotations/translations

                         Centre of mass is constrained
             Set iprint > 1 for details of linear ionic constraints

                         Number of cell constraints= 0
                         Cell constraints are:  1 2 3 4 5 6

                         External pressure/stress (GPa)
                          0.00000   0.00000   0.00000
                                    0.00000   0.00000
                                              0.00000
  
+---------------- MEMORY AND SCRATCH DISK ESTIMATES PER PROCESS --------------+
|                                                     Memory          Disk    |
| Baseline code, static data and system overhead      184.0 MB         0.0 MB |
| BLAS internal memory storage                          0.0 MB         0.0 MB |
| Model and support data                               32.3 MB         0.0 MB |
| Electronic energy minimisation requirements           7.7 MB         0.0 MB |
| Force calculation requirements                        0.9 MB         0.0 MB |
| Stress calculation requirements                       1.0 MB         0.0 MB |
|                                               ----------------------------- |
| Approx. total storage required per process          224.0 MB         0.0 MB |
|                                                                             |
| Requirements will fluctuate during execution and may exceed these estimates |
+-----------------------------------------------------------------------------+
Calculating finite basis set correction with  3 cut-off energies.
Calculating total energy with cut-off of  490.000 eV.
------------------------------------------------------------------------ <-- SCF
SCF loop      Energy           Fermi           Energy gain       Timer   <-- SCF
                               energy          per atom          (sec)   <-- SCF
------------------------------------------------------------------------ <-- SCF
Initial  -2.31160247E+003  0.00000000E+000                        10.70  <-- SCF
      1  -2.71168459E+003  6.26987729E+000   2.00041061E+002      11.15  <-- SCF
      2  -2.74116855E+003  3.41809310E+000   1.47419806E+001      11.50  <-- SCF
      3  -2.74178294E+003  3.59971562E+000   3.07196196E-001      11.84  <-- SCF
      4  -2.74183325E+003  4.26411440E+000   2.51523099E-002      12.24  <-- SCF
      5  -2.74175454E+003  3.80156073E+000  -3.93528599E-002      12.64  <-- SCF
      6  -2.74176285E+003  3.82799647E+000   4.15246552E-003      13.04  <-- SCF
      7  -2.74175437E+003  3.82844652E+000  -4.23601002E-003      13.44  <-- SCF
      8  -2.74175473E+003  3.82845102E+000   1.78777288E-004      13.72  <-- SCF
      9  -2.74175473E+003  3.82845286E+000  -2.74005847E-006      13.98  <-- SCF
     10  -2.74175473E+003  3.82844543E+000   2.03315636E-008      14.24  <-- SCF
     11  -2.74175473E+003  3.82844801E+000  -3.84763555E-011      14.51  <-- SCF
------------------------------------------------------------------------ <-- SCF
 
Final energy, E             =  -2741.717735865     eV
Final free energy (E-TS)    =  -2741.754727001     eV
(energies not corrected for finite basis set)
 
NB est. 0K energy (E-0.5TS)      =  -2741.736231433     eV
 
Calculating total energy with cut-off of  495.000 eV.
------------------------------------------------------------------------ <-- SCF
SCF loop      Energy           Fermi           Energy gain       Timer   <-- SCF
                               energy          per atom          (sec)   <-- SCF
------------------------------------------------------------------------ <-- SCF
Initial  -2.74171774E+003  0.00000000E+000                        14.61  <-- SCF
      1  -2.74175480E+003  3.82844490E+000   1.85297042E-002      14.96  <-- SCF
      2  -2.74175480E+003  3.82844490E+000   1.15757759E-009      15.23  <-- SCF
      3  -2.74175536E+003  3.82857163E+000   2.83204344E-004      15.61  <-- SCF
      4  -2.74175477E+003  3.82843520E+000  -2.97259100E-004      15.99  <-- SCF
      5  -2.74175479E+003  3.82843276E+000   1.26826295E-005      16.26  <-- SCF
      6  -2.74175479E+003  3.82846196E+000   4.50374442E-008      16.52  <-- SCF
      7  -2.74175479E+003  3.82843380E+000   3.22505332E-010      16.79  <-- SCF
------------------------------------------------------------------------ <-- SCF
 
Final energy, E             =  -2741.717801558     eV
Final free energy (E-TS)    =  -2741.754792541     eV
(energies not corrected for finite basis set)
 
NB est. 0K energy (E-0.5TS)      =  -2741.736297050     eV
 
Calculating total energy with cut-off of  500.000 eV.
------------------------------------------------------------------------ <-- SCF
SCF loop      Energy           Fermi           Energy gain       Timer   <-- SCF
                               energy          per atom          (sec)   <-- SCF
------------------------------------------------------------------------ <-- SCF
Initial  -2.74171780E+003  0.00000000E+000                        16.89  <-- SCF
      1  -2.74175486E+003  3.82847524E+000   1.85290316E-002      17.25  <-- SCF
      2  -2.74175486E+003  3.82847524E+000   2.60053760E-010      17.51  <-- SCF
      3  -2.74175490E+003  3.82836407E+000   2.09842908E-005      17.78  <-- SCF
      4  -2.74175486E+003  3.82837047E+000  -2.20313166E-005      18.04  <-- SCF
      5  -2.74175486E+003  3.82841574E+000   9.49218071E-007      18.30  <-- SCF
      6  -2.74175486E+003  3.82845675E+000   1.64210898E-009      18.57  <-- SCF
------------------------------------------------------------------------ <-- SCF
 
Final energy, E             =  -2741.717868548     eV
Final free energy (E-TS)    =  -2741.754859431     eV
(energies not corrected for finite basis set)
 
NB est. 0K energy (E-0.5TS)      =  -2741.736363989     eV
 
 For future reference: finite basis dEtot/dlog(Ecut) =      -0.006572eV
 Total energy corrected for finite basis set =   -2741.754860 eV

 ******************* Unconstrained Forces *******************
 *                                                          *
 *               Cartesian components (eV/A)                *
 * -------------------------------------------------------- *
 *                         x            y            z      *
 *                                                          *
 * Ni              1     -0.00000     -0.00000      0.00000 *
 * Ni              2      0.00000      0.00000     -0.00000 *
 *                                                          *
 ************************************************************

 ******************** Constrained Forces ********************
 *                                                          *
 *               Cartesian components (eV/A)                *
 * -------------------------------------------------------- *
 *                         x            y            z      *
 *                                                          *
 * Ni              1     -0.00000     -0.00000      0.00000 *
 * Ni              2      0.00000      0.00000     -0.00000 *
 *                                                          *
 ************************************************************

 ***************** Stress Tensor *****************
 *                                               *
 *          Cartesian components (GPa)           *
 * --------------------------------------------- *
 *             x             y             z     *
 *                                               *
 *  x     14.858324      0.000000      0.000000  *
 *  y      0.000000     14.858324      0.000000  *
 *  z      0.000000      0.000000     14.717291  *
 *                                               *
 *  Pressure:  -14.8113                          *
 *                                               *
 *************************************************

 Pseudo atomic calculation performed for Ni 3d8 4s2

 Converged in 39 iterations to a total energy of -1362.4764 eV

Charge spilling parameter for spin component 1 = 0.13%

     Atomic Populations (Mulliken)
     -----------------------------
Species          Ion     s      p      d      f     Total  Charge (e)
=====================================================================
  Ni              1     0.43   0.91   8.67   0.00  10.00    -0.00
  Ni              2     0.43   0.91   8.67   0.00  10.00     0.00
=====================================================================

                 Bond                   Population      Length (A)
======================================================================
              Ni 1 -- Ni 2                   0.18        2.47417
======================================================================

 
 A BibTeX formatted list of references used in this run has been written to 
 castep.bib
 
Initialisation time =      9.06 s
Calculation time    =     10.38 s
Finalisation time   =      3.43 s
Total time          =     22.87 s
Peak Memory Use     = 457376 kB
  
Overall parallel efficiency rating: Mediocre (59%)                              
  
Data was distributed by:-
k-point (48-way); efficiency rating: Satisfactory (60%)                         
  
Parallel notes:
1) Calculation only took 19.5 s, so efficiency estimates may be inaccurate.     
 +-------------------------------------------------+
 |                                                 |
 |      CCC   AA    SSS  TTTTT  EEEEE  PPPP        |
 |     C     A  A  S       T    E      P   P       |
 |     C     AAAA   SS     T    EEE    PPPP        |
 |     C     A  A     S    T    E      P           |
 |      CCC  A  A  SSS     T    EEEEE  P           |
 |                                                 |
 +-------------------------------------------------+
 |                                                 |
 | Welcome to Academic Release CASTEP version 17.21|          
 | Ab Initio Total Energy Program                  |
 |                                                 |
 | Authors:                                        |
 | M. Segall, M. Probert, C. Pickard, P. Hasnip,   |
 | S. Clark, K. Refson, J. R. Yates, M. Payne      |
 |                                                 |
 | Contributors:                                   |
 | P. Lindan, P. Haynes, J. White, V. Milman,      |
 | N. Govind, M. Gibson, P. Tulip, V. Cocula,      |
 | B. Montanari, D. Quigley, M. Glover,            |
 | L. Bernasconi, A. Perlov, M. Plummer,           |
 | E. McNellis, J. Meyer, J. Gale, D. Jochym       |
 | J. Aarons, B. Walker, R. Gillen, D. Jones       |
 | T. Green, I. J. Bush, C. J. Armstrong,          |
 | E. J. Higgins, E. L. Brown, M. S. McFly,        |
 | J. Wilkins, B-C. Shih, P. J. P. Byrne           |
 |                                                 |
 | Copyright (c) 2000 - 2017                       |
 |                                                 |
 |     Distributed under the terms of an           |
 |     Agreement between the United Kingdom        |
 |     Car-Parrinello (UKCP) Consortium,           |
 |     Daresbury Laboratory and Accelrys, Inc.     |
 |                                                 |
 | Please cite                                     |
 |                                                 |
 |     "First principles methods using CASTEP"     |
 |                                                 |
 |         Zeitschrift fuer Kristallographie       |
 |           220(5-6) pp. 567-570 (2005)           |
 |                                                 |
 | S. J. Clark, M. D. Segall, C. J. Pickard,       |
 | P. J. Hasnip, M. J. Probert, K. Refson,         |
 | M. C. Payne                                     |
 |                                                 |
 |       in all publications arising from          |
 |              your use of CASTEP                 |
 |                                                 |
 +-------------------------------------------------+


 Compiled for linux_x86_64_gfortran6.0-XT on Fri, 21 Jul 2017 10:20:05 +0100
 from code version 056e886bd5a1+ Castep172_branch Mon, 15 May 2017 14:45:35 +0100
 Compiler: GNU Fortran 6.3.0; Optimisation: fast
 MATHLIBS: Intel MKL(2017.0.0) (LAPACK version 3.6.0)
 FFT Lib : fftw3 version commercial-fftw-3.3.4-sse2-avx
 Fundamental constants values: CODATA 2010

 Run started: Sun, 17 Nov 2019 20:59:01 +0000

 Atomic calculation performed for Ni: 1s2 2s2 2p6 3s2 3p6 3d8 4s2

 Converged in 111 iterations to an ae energy of -41308.385 eV

   ============================================================                
   | Pseudopotential Report - Date of generation 17-11-2019   |                
   ------------------------------------------------------------                
   | Element: Ni Ionic charge: 10.00 Level of theory: LDA     |                
   | Atomic Solver: Koelling-Harmon                           |                
   |                                                          |                
   |               Reference Electronic Structure             |                
   |         Orbital         Occupation         Energy        |                
   |            3d              8.000           -0.336        |                
   |            4s              2.000           -0.216        |                
   |                                                          |                
   |                 Pseudopotential Definition               |                
   |        Beta     l      e      Rc     scheme   norm       |                
   |          1      0   -0.216   2.401     qc      0         |                
   |          2      0    0.250   2.401     qc      0         |                
   |          3      1    0.000   2.401     qc      0         |                
   |          4      1    0.250   2.401     qc      0         |                
   |          5      2   -0.336   1.999     qc      0         |                
   |          6      2    0.250   1.999     qc      0         |                
   |         loc     3    0.000   2.401     pn      0         |                
   |                                                          |                
   | Augmentation charge Rinner = 1.001                       |                
   | Partial core correction Rc = 1.001                       |                
   ------------------------------------------------------------                
   | "3|2.4|2.4|1.0|8|9|10|40:41:32U2U2(qc=5.5)"              |                
   ------------------------------------------------------------                
   |      Author: Chris J. Pickard, Cambridge University      |                
   ============================================================                

 Pseudo atomic calculation performed for Ni 3d8 4s2

 Converged in 39 iterations to a total energy of -1362.4764 eV

 Calculation parallelised over 48 processes.
 Data is distributed by k-point(48-way)

 ************************************ Title ************************************
 

 ***************************** General Parameters ******************************
  
 output verbosity                               : normal  (1)
 write checkpoint data to                       : castep.check
 type of calculation                            : single point energy
 stress calculation                             : on
 density difference calculation                 : off
 electron localisation func (ELF) calculation   : off
 Hirshfeld analysis                             : off
 unlimited duration calculation
 timing information                             : on
 memory usage estimate                          : on
 write final potential to formatted file        : off
 write final density to formatted file          : off
 write BibTeX reference list                    : on
 write OTFG pseudopotential files               : on
 write electrostatic potential file             : on
 write bands file                               : on
 checkpoint writing                             : off
  
 output         length unit                     : A
 output           mass unit                     : amu
 output           time unit                     : ps
 output         charge unit                     : e
 output           spin unit                     : hbar/2
 output         energy unit                     : eV
 output          force unit                     : eV/A
 output       velocity unit                     : A/ps
 output       pressure unit                     : GPa
 output     inv_length unit                     : 1/A
 output      frequency unit                     : cm-1
 output force constant unit                     : eV/A**2
 output         volume unit                     : A**3
 output   IR intensity unit                     : (D/A)**2/amu
 output         dipole unit                     : D
 output         efield unit                     : eV/A/e
 output        entropy unit                     : J/mol/K
  
 wavefunctions paging                           : none
 random number generator seed                   : randomised (205902016)
 data distribution                              : optimal for this architecture
 optimization strategy                          : maximize speed(+++)

 *********************** Exchange-Correlation Parameters ***********************
  
 using functional                               : Local Density Approximation
 relativistic treatment                         : Koelling-Harmon
 DFT+D: Semi-empirical dispersion correction    : off

 ************************* Pseudopotential Parameters **************************
  
 pseudopotential representation                 : reciprocal space
 <beta|phi> representation                      : reciprocal space
 spin-orbit coupling                            : off

 **************************** Basis Set Parameters *****************************
  
 plane wave basis set cut-off                   :   500.0000   eV
 size of standard grid                          :     1.7500
 size of   fine   gmax                          :    20.0476   1/A
 finite basis set correction                    : automatic
 number of sample energies                      :          3
           sample  spacing                      :     5.0000   eV

 **************************** Electronic Parameters ****************************
  
 number of  electrons                           :  20.00    
 net charge of system                           :  0.000    
 treating system as non-spin-polarized
 number of bands                                :         14

 ********************* Electronic Minimization Parameters **********************
  
 Method: Treating system as metallic with density mixing treatment of electrons,
         and number of  SD  steps               :          1
         and number of  CG  steps               :          4
  
 total energy / atom convergence tol.           : 0.1000E-04   eV
 eigen-energy convergence tolerance             : 0.1000E-05   eV
 max force / atom convergence tol.              : ignored
 convergence tolerance window                   :          3   cycles
 max. number of SCF cycles                      :        250
 number of fixed-spin iterations                :         10
 smearing scheme                                : Gaussian
[...]
   | Pseudopotential Report - Date of generation 17-11-2019   |                
   ------------------------------------------------------------                
   | Element: Ni Ionic charge: 10.00 Level of theory: LDA     |                
   | Atomic Solver: Koelling-Harmon                           |                
   |                                                          |                
   |               Reference Electronic Structure             |                
   |         Orbital         Occupation         Energy        |                
   |            3d              8.000           -0.336        |                
   |            4s              2.000           -0.216        |                
   |                                                          |                
   |                 Pseudopotential Definition               |                
   |        Beta     l      e      Rc     scheme   norm       |                
   |          1      0   -0.216   2.401     qc      0         |                
   |          2      0    0.250   2.401     qc      0         |                
   |          3      1    0.000   2.401     qc      0         |                
   |          4      1    0.250   2.401     qc      0         |                
   |          5      2   -0.336   1.999     qc      0         |                
   |          6      2    0.250   1.999     qc      0         |                
   |         loc     3    0.000   2.401     pn      0         |                
   |                                                          |                
   | Augmentation charge Rinner = 1.001                       |                
   | Partial core correction Rc = 1.001                       |                
   ------------------------------------------------------------                
   | "3|2.4|2.4|1.0|8|9|10|40:41:32U2U2(qc=5.5)"              |                
   ------------------------------------------------------------                
   |      Author: Chris J. Pickard, Cambridge University      |                
   ============================================================                

 Pseudo atomic calculation performed for Ni 3d8 4s2

 Converged in 39 iterations to a total energy of -1362.4764 eV

 Calculation parallelised over 48 processes.
 Data is distributed by k-point(48-way)

 ************************************ Title ************************************
 

 ***************************** General Parameters ******************************
  
 output verbosity                               : normal  (1)
 write checkpoint data to                       : castep.check
 type of calculation                            : single point energy
 stress calculation                             : on
 density difference calculation                 : off
 electron localisation func (ELF) calculation   : off
 Hirshfeld analysis                             : off
 unlimited duration calculation
 timing information                             : on
 memory usage estimate                          : on
 write final potential to formatted file        : off
 write final density to formatted file          : off
 write BibTeX reference list                    : on
 write OTFG pseudopotential files               : on
 write electrostatic potential file             : on
 write bands file                               : on
 checkpoint writing                             : off
  
 output         length unit                     : A
 output           mass unit                     : amu
 output           time unit                     : ps
 output         charge unit                     : e
 output           spin unit                     : hbar/2
 output         energy unit                     : eV
 output          force unit                     : eV/A
 output       velocity unit                     : A/ps
 output       pressure unit                     : GPa
 output     inv_length unit                     : 1/A
 output      frequency unit                     : cm-1
 output force constant unit                     : eV/A**2
 output         volume unit                     : A**3
 output   IR intensity unit                     : (D/A)**2/amu
 output         dipole unit                     : D
 output         efield unit                     : eV/A/e
 output        entropy unit                     : J/mol/K
  
 wavefunctions paging                           : none
 random number generator seed                   : randomised (211408798)
 data distribution                              : optimal for this architecture
 optimization strategy                          : maximize speed(+++)

 *********************** Exchange-Correlation Parameters ***********************
  
 using functional                               : Local Density Approximation
 relativistic treatment                         : Koelling-Harmon
 DFT+D: Semi-empirical dispersion correction    : off

 ************************* Pseudopotential Parameters **************************
  
 pseudopotential representation                 : reciprocal space
 <beta|phi> representation                      : reciprocal space
 spin-orbit coupling                            : off

 **************************** Basis Set Parameters *****************************
  
 plane wave basis set cut-off                   :   500.0000   eV
 size of standard grid                          :     1.7500
 size of   fine   gmax                          :    20.0476   1/A
 finite basis set correction                    : automatic
 number of sample energies                      :          3
           sample  spacing                      :     5.0000   eV

 **************************** Electronic Parameters ****************************
  
 number of  electrons                           :  20.00    
 net charge of system                           :  0.000    
 treating system as non-spin-polarized
 number of bands                                :         14

 ********************* Electronic Minimization Parameters **********************
  
 Method: Treating system as metallic with density mixing treatment of electrons,
         and number of  SD  steps               :          1
         and number of  CG  steps               :          4
  
 total energy / atom convergence tol.           : 0.1000E-04   eV
 eigen-energy convergence tolerance             : 0.1000E-05   eV
 max force / atom convergence tol.              : ignored
 convergence tolerance window                   :          3   cycles
 max. number of SCF cycles                      :        250
 number of fixed-spin iterations                :         10
 smearing scheme                                : Gaussian
 smearing width                                 : 0.1000       eV
 Fermi energy convergence tolerance             : 0.2721E-13   eV
 periodic dipole correction                     : NONE

 ************************** Density Mixing Parameters **************************
  
 density-mixing scheme                          : Pulay
 max. length of mixing history                  :         20
 charge density mixing amplitude                : 0.8000    
 cut-off energy for mixing                      :  500.0       eV

 *********************** Population Analysis Parameters ************************
  
 Population analysis with cutoff                :  3.000       A

 *******************************************************************************
  

                           -------------------------------
                                      Unit Cell
                           -------------------------------
        Real Lattice(A)                      Reciprocal Lattice(1/A)
   2.4683720   0.0000000   0.0000000        2.5454775   0.0000000   0.0000000
   0.0000000   2.4199730   0.0242000        0.0000000   2.5966462  -0.0259661
   0.0000000   0.0342380   3.4238540        0.0000000  -0.0183532   1.8353042

                       Lattice parameters(A)       Cell Angles
                    a =    2.468372          alpha =   88.854125
                    b =    2.420094          beta  =   90.000000
                    c =    3.424025          gamma =   90.000000

                       Current cell volume =   20.449982       A**3
                                   density =    5.740191   AMU/A**3
                                           =    9.531810     g/cm^3

                           -------------------------------
                                     Cell Contents
                           -------------------------------
                         Total number of ions in cell =    2
                      Total number of species in cell =    1
                        Max number of any one species =    2

            xxxxxxxxxxxxxxxxxxxxxxxxxxxxxxxxxxxxxxxxxxxxxxxxxxxxxxxxxxxx
            x  Element    Atom        Fractional coordinates of atoms  x
            x            Number           u          v          w      x
            x----------------------------------------------------------x
            x  Ni           1         0.000000   0.000000   0.000000   x 
            x  Ni           2         0.500000   0.500000   0.500000   x 
            xxxxxxxxxxxxxxxxxxxxxxxxxxxxxxxxxxxxxxxxxxxxxxxxxxxxxxxxxxxx


                         No user defined ionic velocities

                           -------------------------------
                                   Details of Species
                           -------------------------------

                               Mass of species in AMU
                                    Ni   58.6934000

                          Electric Quadrupole Moment (Barn)
                                    Ni    0.1620000 Isotope 61

                          Files used for pseudopotentials:
                                    Ni 3|2.4|2.4|1.0|8|9|10|40:41:32U2U2(qc=5.5)

                           -------------------------------
                              k-Points For BZ Sampling
                           -------------------------------
                       MP grid size for SCF calculation is 14 14 10
                            with an offset of   0.000  0.000  0.000
                       Number of kpoints used =           980

                           -------------------------------
                               Symmetry and Constraints
                           -------------------------------

                      Cell is a supercell containing 2 primitive cells
                      Maximum deviation from symmetry =  0.00000         ANG

                      Number of symmetry operations   =           1
                      Number of ionic constraints     =           3
                      Point group of crystal =     1: C1, 1, 1
                      Space group of crystal =    12: C2/m, -C 2y

             Set iprint > 1 for details on symmetry rotations/translations

                         Centre of mass is constrained
             Set iprint > 1 for details of linear ionic constraints

                         Number of cell constraints= 0
                         Cell constraints are:  1 2 3 4 5 6

                         External pressure/stress (GPa)
                          0.00000   0.00000   0.00000
                                    0.00000   0.00000
                                              0.00000
  
+---------------- MEMORY AND SCRATCH DISK ESTIMATES PER PROCESS --------------+
|                                                     Memory          Disk    |
| Baseline code, static data and system overhead      184.0 MB         0.0 MB |
| BLAS internal memory storage                          0.0 MB         0.0 MB |
| Model and support data                               31.9 MB         0.0 MB |
| Electronic energy minimisation requirements           7.4 MB         0.0 MB |
| Force calculation requirements                        0.9 MB         0.0 MB |
| Stress calculation requirements                       1.0 MB         0.0 MB |
|                                               ----------------------------- |
| Approx. total storage required per process          223.3 MB         0.0 MB |
|                                                                             |
| Requirements will fluctuate during execution and may exceed these estimates |
+-----------------------------------------------------------------------------+
Calculating finite basis set correction with  3 cut-off energies.
Calculating total energy with cut-off of  490.000 eV.
------------------------------------------------------------------------ <-- SCF
SCF loop      Energy           Fermi           Energy gain       Timer   <-- SCF
                               energy          per atom          (sec)   <-- SCF
------------------------------------------------------------------------ <-- SCF
Initial  -2.31195356E+003  0.00000000E+000                         8.94  <-- SCF
      1  -2.71300829E+003  6.54564156E+000   2.00527367E+002       9.37  <-- SCF
      2  -2.74124907E+003  3.94794804E+000   1.41203908E+001       9.71  <-- SCF
      3  -2.74182656E+003  4.11585985E+000   2.88746178E-001      10.04  <-- SCF
      4  -2.74184103E+003  4.54722516E+000   7.23039084E-003      10.44  <-- SCF
      5  -2.74180988E+003  4.23192053E+000  -1.55710429E-002      10.83  <-- SCF
      6  -2.74181625E+003  4.26814560E+000   3.18282643E-003      11.23  <-- SCF
      7  -2.74180930E+003  4.26999803E+000  -3.47417617E-003      11.63  <-- SCF
      8  -2.74180956E+003  4.26894493E+000   1.27522096E-004      11.89  <-- SCF
      9  -2.74180955E+003  4.26899901E+000  -4.77761873E-007      12.14  <-- SCF
     10  -2.74180956E+003  4.26899094E+000   4.97325263E-008      12.39  <-- SCF
     11  -2.74180956E+003  4.26899830E+000   4.40447929E-010      12.64  <-- SCF
------------------------------------------------------------------------ <-- SCF
 
Final energy, E             =  -2741.775057722     eV
Final free energy (E-TS)    =  -2741.809555079     eV
(energies not corrected for finite basis set)
 
NB est. 0K energy (E-0.5TS)      =  -2741.792306400     eV
 
Calculating total energy with cut-off of  495.000 eV.
------------------------------------------------------------------------ <-- SCF
SCF loop      Energy           Fermi           Energy gain       Timer   <-- SCF
                               energy          per atom          (sec)   <-- SCF
------------------------------------------------------------------------ <-- SCF
Initial  -2.74177506E+003  0.00000000E+000                        12.75  <-- SCF
      1  -2.74180962E+003  4.26899278E+000   1.72818502E-002      13.09  <-- SCF
      2  -2.74180962E+003  4.26899278E+000   1.69373304E-010      13.35  <-- SCF
      3  -2.74180962E+003  4.26897969E+000   1.83531056E-007      13.60  <-- SCF
      4  -2.74180962E+003  4.26898213E+000  -1.88804830E-007      13.86  <-- SCF
------------------------------------------------------------------------ <-- SCF
 
Final energy, E             =  -2741.775124082     eV
Final free energy (E-TS)    =  -2741.809621415     eV
(energies not corrected for finite basis set)
 
NB est. 0K energy (E-0.5TS)      =  -2741.792372749     eV
 
Calculating total energy with cut-off of  500.000 eV.
------------------------------------------------------------------------ <-- SCF
SCF loop      Energy           Fermi           Energy gain       Timer   <-- SCF
                               energy          per atom          (sec)   <-- SCF
------------------------------------------------------------------------ <-- SCF
Initial  -2.74177512E+003  0.00000000E+000                        13.96  <-- SCF
      1  -2.74180969E+003  4.26902435E+000   1.72819179E-002      14.31  <-- SCF
      2  -2.74180969E+003  4.26902435E+000   2.45939318E-010      14.57  <-- SCF
      3  -2.74180971E+003  4.26891413E+000   1.11486872E-005      14.83  <-- SCF
      4  -2.74180969E+003  4.26892458E+000  -1.16524883E-005      15.09  <-- SCF
      5  -2.74180969E+003  4.26898048E+000   4.47678197E-007      19.06  <-- SCF
      6  -2.74180969E+003  4.26900037E+000   4.27106881E-010      19.32  <-- SCF
------------------------------------------------------------------------ <-- SCF
 
Final energy, E             =  -2741.775190488     eV
Final free energy (E-TS)    =  -2741.809687821     eV
(energies not corrected for finite basis set)
 
NB est. 0K energy (E-0.5TS)      =  -2741.792439154     eV
 
 For future reference: finite basis dEtot/dlog(Ecut) =      -0.006610eV
 Total energy corrected for finite basis set =   -2741.809688 eV

 ******************* Unconstrained Forces *******************
 *                                                          *
 *               Cartesian components (eV/A)                *
 * -------------------------------------------------------- *
 *                         x            y            z      *
 *                                                          *
 * Ni              1      0.00000      0.00000     -0.00000 *
 * Ni              2     -0.00000     -0.00000      0.00000 *
 *                                                          *
 ************************************************************

 ******************** Constrained Forces ********************
 *                                                          *
 *               Cartesian components (eV/A)                *
 * -------------------------------------------------------- *
 *                         x            y            z      *
 *                                                          *
 * Ni              1      0.00000      0.00000     -0.00000 *
 * Ni              2     -0.00000     -0.00000      0.00000 *
 *                                                          *
 ************************************************************

 ***************** Stress Tensor *****************
 *                                               *
 *          Cartesian components (GPa)           *
 * --------------------------------------------- *
 *             x             y             z     *
 *                                               *
 *  x      7.692052     -0.000000      0.000002  *
 *  y     -0.000000      2.922684      2.584145  *
 *  z      0.000002      2.584145      4.377599  *
 *                                               *
 *  Pressure:   -4.9974                          *
 *                                               *
 *************************************************

 Pseudo atomic calculation performed for Ni 3d8 4s2

 Converged in 39 iterations to a total energy of -1362.4764 eV

Charge spilling parameter for spin component 1 = 0.13%

     Atomic Populations (Mulliken)
     -----------------------------
Species          Ion     s      p      d      f     Total  Charge (e)
=====================================================================
  Ni              1     0.43   0.90   8.66   0.00  10.00     0.00
  Ni              2     0.43   0.90   8.66   0.00  10.00    -0.00
=====================================================================

                 Bond                   Population      Length (A)
======================================================================
              Ni 1 -- Ni 2                   0.04        2.41569
======================================================================

 
 A BibTeX formatted list of references used in this run has been written to 
 castep.bib
 
Initialisation time =      7.29 s
Calculation time    =     12.89 s
Finalisation time   =      0.03 s
Total time          =     20.21 s
Peak Memory Use     = 454984 kB
  
Overall parallel efficiency rating: Satisfactory (63%)                          
  
Data was distributed by:-
k-point (48-way); efficiency rating: Satisfactory (63%)                         
  
Parallel notes:
1) Calculation only took 20.2 s, so efficiency estimates may be inaccurate.     
