1
Lattice="2.81588166 0.0 0.0 -0.938627219791921 2.654838689146677 0.0 -0.938627219791921 -1.3274193441319362 2.299157748005644" Properties=species:S:1:pos:R:3:tags:I:1 spacegroup="P 1" energy=-1593.5992316 unit_cell=conventional pbc="T T T" n_minim_iter=1
Ti       0.00000000       0.00000000       0.00000000        0 
