2
Lattice="3.32 0.0 0.0 0.0 3.32 0.0 0.0 0.0 3.32" Properties=species:S:1:pos:R:3 energy=-3186.93208482 pbc="T T T" n_minim_iter=1
Ti       0.00000000       0.00000000       0.00000000 
Ti       1.66000000       1.66000000       1.66000000 
2
Lattice="3.115318315732672 -4.754871480591423e-14 4.1217183725143956e-14 -4.7548714805914236e-14 3.115318315732738 8.923524551411124e-14 4.121718372514396e-14 8.923524551411123e-14 3.115318315734029" Properties=species:S:1:pos:R:3 stress="-0.04691763750306503 1.5869640803334677e-14 -1.9663655857896083e-12 1.5869640803334677e-14 -0.046917637498619505 4.413323121375307e-13 -1.9663655857896083e-12 4.413323121375307e-13 -0.04691763751240554" pbc="T T T" n_minim_iter=2
Ti       0.00000000      -0.00000000       0.00000000 
Ti       1.55765916       1.55765916       1.55765916 
2
Lattice="3.1746847588801526 -6.872532539756136e-14 2.5536681299796326e-12 -6.872532539756136e-14 3.1746847588745424 -4.727840238415298e-13 2.553668129979633e-12 -4.727840238415299e-13 3.1746847588934664" Properties=species:S:1:pos:R:3 stress="0.002592026361955307 1.557040960382662e-12 2.247823895089734e-12 1.557040960382662e-12 0.0025920263670019227 -4.0343927194431604e-13 2.247823895089734e-12 -4.0343927194431604e-13 0.0025920263634047836" pbc="T T T" n_minim_iter=3
Ti      -0.00000000       0.00000000      -0.00000000 
Ti       1.58734238       1.58734238       1.58734238 
