2
Lattice="2.8843925255557306 -6.244110201449921e-14 2.3201614731225655e-12 -6.244110201449921e-14 2.8843925255506333 -4.2955279284224255e-13 2.320161473122566e-12 -4.2955279284224266e-13 2.884392525567826" Properties=species:S:1:pos:R:3 energy=-3186.82953854 pbc="T T T" n_minim_iter=0
Ti      -0.00000000       0.00000000      -0.00000000 
Ti       1.44219626       1.44219626       1.44219626 
