2
Lattice="3.226738022961429 -6.98521703549967e-14 2.5955389838254984e-12 -6.98521703549967e-14 3.2267380229557268 -4.805359593927978e-13 2.595538983825499e-12 -4.805359593927979e-13 3.2267380229749607" Properties=species:S:1:pos:R:3 energy=-3187.14017793 pbc="T T T" n_minim_iter=0
Ti      -0.00000000       0.00000000      -0.00000000 
Ti       1.61336901       1.61336901       1.61336901 
