2
Lattice="3.3260840564919865 -7.200280545734715e-14 2.675451422047038e-12 -7.200280545734715e-14 3.326084056486109 -4.95330882685226e-13 2.6754514220470382e-12 -4.953308826852261e-13 3.326084056505935" Properties=species:S:1:pos:R:3 energy=-3186.91332288 pbc="T T T" n_minim_iter=0
Ti      -0.00000000       0.00000000      -0.00000000 
Ti       1.66304203       1.66304203       1.66304203 
