2
Lattice="2.916091684906463 -6.31273229172564e-14 2.3456597947290438e-12 -6.31273229172564e-14 2.9160916849013097 -4.342735311984879e-13 2.345659794729044e-12 -4.34273531198488e-13 2.9160916849186918" Properties=species:S:1:pos:R:3 energy=-3186.75639026 pbc="T T T" n_minim_iter=0
Ti      -0.00000000       0.00000000      -0.00000000 
Ti       1.45804584       1.45804584       1.45804584 
