2
Lattice="3.0651244341680703 -6.635357212491317e-14 2.4655394713010447e-12 -6.635357212491317e-14 3.065124434162654 -4.56467956230132e-13 2.465539471301045e-12 -4.564679562301321e-13 3.065124434180925" Properties=species:S:1:pos:R:3 energy=-3187.04406301 pbc="T T T" n_minim_iter=0
Ti      -0.00000000       0.00000000      -0.00000000 
Ti       1.53256222       1.53256222       1.53256222 
