2
Lattice="2.947116265411759 -6.379894059034512e-14 2.370615495373258e-12 -6.379894059034512e-14 2.947116265406551 -4.388938091546726e-13 2.3706154953732582e-12 -4.388938091546727e-13 2.947116265424118" Properties=species:S:1:pos:R:3 energy=-3186.76690671 pbc="T T T" n_minim_iter=0
Ti      -0.00000000       0.00000000      -0.00000000 
Ti       1.47355813       1.47355813       1.47355813 
