2
Lattice="3.396872946742531 -7.353523777315197e-14 2.7323929285962448e-12 -7.353523777315197e-14 3.3968729467365284 -5.058729865216191e-13 2.732392928596245e-12 -5.058729865216192e-13 3.3968729467567766" Properties=species:S:1:pos:R:3 energy=-3186.65985548 pbc="T T T" n_minim_iter=0
Ti      -0.00000000       0.00000000      -0.00000000 
Ti       1.69843647       1.69843647       1.69843647 
