2
Lattice="3.3500135415155214 -7.252082906275818e-14 2.6946999358090726e-12 -7.252082906275818e-14 3.3500135415096017 -4.98894536741345e-13 2.694699935809073e-12 -4.988945367413451e-13 3.35001354152957" Properties=species:S:1:pos:R:3 energy=-3186.83451514 pbc="T T T" n_minim_iter=0
Ti      -0.00000000       0.00000000      -0.00000000 
Ti       1.67500677       1.67500677       1.67500677 
