2
Lattice="3.0072780351653763 -6.510131783937598e-14 2.4190087078436443e-12 -6.510131783937598e-14 3.007278035160062 -4.47853288834027e-13 2.4190087078436447e-12 -4.478532888340271e-13 3.007278035177988" Properties=species:S:1:pos:R:3 energy=-3186.89644624 pbc="T T T" n_minim_iter=0
Ti      -0.00000000       0.00000000      -0.00000000 
Ti       1.50363902       1.50363902       1.50363902 
