2
Lattice="3.3018052051180202 -7.147721879672279e-14 2.6559218833069206e-12 -7.147721879672279e-14 3.301805205112186 -4.917151998950761e-13 2.655921883306921e-12 -4.917151998950762e-13 3.301805205131867" Properties=species:S:1:pos:R:3 energy=-3186.98485083 pbc="T T T" n_minim_iter=0
Ti      -0.00000000       0.00000000      -0.00000000 
Ti       1.65090260       1.65090260       1.65090260 
