2
Lattice="3.20092301287223 -6.929332905160148e-14 2.574773782381326e-12 -6.929332905160148e-14 3.2009230128665735 -4.766915070227343e-13 2.5747737823813265e-12 -4.766915070227344e-13 3.200923012885654" Properties=species:S:1:pos:R:3 energy=-3187.16590836 pbc="T T T" n_minim_iter=0
Ti      -0.00000000       0.00000000      -0.00000000 
Ti       1.60046151       1.60046151       1.60046151 
