2
Lattice="3.2521464551053363 -7.040221009108308e-14 2.615977140154927e-12 -7.040221009108308e-14 3.2521464550995893 -4.843198628984607e-13 2.6159771401549273e-12 -4.843198628984608e-13 3.2521464551189747" Properties=species:S:1:pos:R:3 energy=-3187.10007007 pbc="T T T" n_minim_iter=0
Ti      -0.00000000       0.00000000      -0.00000000 
Ti       1.62607323       1.62607323       1.62607323 
