2
Lattice="3.0364767353670437 -6.573340899958719e-14 2.4424956981450468e-12 -6.573340899958719e-14 3.0364767353616777 -4.5220165096153357e-13 2.442495698145047e-12 -4.5220165096153367e-13 3.036476735379778" Properties=species:S:1:pos:R:3 energy=-3186.97372113 pbc="T T T" n_minim_iter=0
Ti      -0.00000000       0.00000000      -0.00000000 
Ti       1.51823837       1.51823837       1.51823837 
