2
Lattice="3.1208661456430824 -6.756026430076514e-14 2.510377256125535e-12 -6.756026430076514e-14 3.1208661456375673 -4.64769186950207e-13 2.5103772561255355e-12 -4.647691869502071e-13 3.1208661456561706" Properties=species:S:1:pos:R:3 energy=-3187.14420997 pbc="T T T" n_minim_iter=0
Ti      -0.00000000       0.00000000      -0.00000000 
Ti       1.56043307       1.56043307       1.56043307 
