2
Lattice="3.09324641267247 -6.696235449870069e-14 2.488160363047156e-12 -6.696235449870069e-14 3.093246412667004 -4.60655969581223e-13 2.4881603630471565e-12 -4.606559695812231e-13 3.093246412685443" Properties=species:S:1:pos:R:3 energy=-3187.10184536 pbc="T T T" n_minim_iter=0
Ti      -0.00000000       0.00000000      -0.00000000 
Ti       1.54662321       1.54662321       1.54662321 
