2
Lattice="3.3736059634774254 -7.303155595358194e-14 2.7136773211713904e-12 -7.303155595358194e-14 3.373605963471464 -5.024079943078376e-13 2.7136773211713908e-12 -5.024079943078377e-13 3.373605963491573" Properties=species:S:1:pos:R:3 energy=-3186.74967127 pbc="T T T" n_minim_iter=0
Ti      -0.00000000       0.00000000      -0.00000000 
Ti       1.68680298       1.68680298       1.68680298 
