2
Lattice="3.419825487223453 -7.403211256011774e-14 2.7508556030284845e-12 -7.403211256011774e-14 3.4198254872174094 -5.092911509285266e-13 2.750855603028485e-12 -5.092911509285267e-13 3.419825487237795" Properties=species:S:1:pos:R:3 energy=-3186.56597149 pbc="T T T" n_minim_iter=0
Ti      -0.00000000       0.00000000      -0.00000000 
Ti       1.70991274       1.70991274       1.70991274 
