2
Lattice="3.1746847588801526 -6.872532539756136e-14 2.5536681299796326e-12 -6.872532539756136e-14 3.1746847588745424 -4.727840238415298e-13 2.553668129979633e-12 -4.727840238415299e-13 3.1746847588934664" Properties=species:S:1:pos:R:3 stress="0.002592026361955307 1.557040960382662e-12 2.247823895089734e-12 1.557040960382662e-12 0.0025920263670019227 -4.0343927194431604e-13 2.247823895089734e-12 -4.0343927194431604e-13 0.0025920263634047836" pbc="T T T" n_minim_iter=3
Ti      -0.00000000       0.00000000      -0.00000000 
Ti       1.58734238       1.58734238       1.58734238 
