 +-------------------------------------------------+
 |                                                 |
 |      CCC   AA    SSS  TTTTT  EEEEE  PPPP        |
 |     C     A  A  S       T    E      P   P       |
 |     C     AAAA   SS     T    EEE    PPPP        |
 |     C     A  A     S    T    E      P           |
 |      CCC  A  A  SSS     T    EEEEE  P           |
 |                                                 |
 +-------------------------------------------------+
 |                                                 |
 | Welcome to Academic Release CASTEP version 17.21|          
 | Ab Initio Total Energy Program                  |
 |                                                 |
 | Authors:                                        |
 | M. Segall, M. Probert, C. Pickard, P. Hasnip,   |
 | S. Clark, K. Refson, J. R. Yates, M. Payne      |
 |                                                 |
 | Contributors:                                   |
 | P. Lindan, P. Haynes, J. White, V. Milman,      |
 | N. Govind, M. Gibson, P. Tulip, V. Cocula,      |
 | B. Montanari, D. Quigley, M. Glover,            |
 | L. Bernasconi, A. Perlov, M. Plummer,           |
 | E. McNellis, J. Meyer, J. Gale, D. Jochym       |
 | J. Aarons, B. Walker, R. Gillen, D. Jones       |
 | T. Green, I. J. Bush, C. J. Armstrong,          |
 | E. J. Higgins, E. L. Brown, M. S. McFly,        |
 | J. Wilkins, B-C. Shih, P. J. P. Byrne           |
 |                                                 |
 | Copyright (c) 2000 - 2017                       |
 |                                                 |
 |     Distributed under the terms of an           |
 |     Agreement between the United Kingdom        |
 |     Car-Parrinello (UKCP) Consortium,           |
 |     Daresbury Laboratory and Accelrys, Inc.     |
 |                                                 |
 | Please cite                                     |
 |                                                 |
 |     "First principles methods using CASTEP"     |
 |                                                 |
 |         Zeitschrift fuer Kristallographie       |
 |           220(5-6) pp. 567-570 (2005)           |
 |                                                 |
 | S. J. Clark, M. D. Segall, C. J. Pickard,       |
 | P. J. Hasnip, M. J. Probert, K. Refson,         |
 | M. C. Payne                                     |
 |                                                 |
 |       in all publications arising from          |
 |              your use of CASTEP                 |
 |                                                 |
 +-------------------------------------------------+


 Compiled for linux_x86_64_gfortran6.0-XT on Fri, 21 Jul 2017 10:20:05 +0100
 from code version 056e886bd5a1+ Castep172_branch Mon, 15 May 2017 14:45:35 +0100
 Compiler: GNU Fortran 6.3.0; Optimisation: fast
 MATHLIBS: Intel MKL(2017.0.0) (LAPACK version 3.6.0)
 FFT Lib : fftw3 version commercial-fftw-3.3.4-sse2-avx
 Fundamental constants values: CODATA 2010

 Run started: Fri, 20 Sep 2019 15:49:39 +0100

 Atomic calculation performed for Al: 1s2 2s2 2p6 3s2 3p1

 Converged in 55 iterations to an ae energy of -6578.725 eV

   ============================================================                
   | Pseudopotential Report - Date of generation 20-09-2019   |                
   ------------------------------------------------------------                
   | Element: Al Ionic charge:  3.00 Level of theory: LDA     |                
   | Atomic Solver: Koelling-Harmon                           |                
   |                                                          |                
   |               Reference Electronic Structure             |                
   |         Orbital         Occupation         Energy        |                
   |            3s              2.000           -0.288        |                
   |            3p              1.000           -0.102        |                
   |                                                          |                
   |                 Pseudopotential Definition               |                
   |        Beta     l      e      Rc     scheme   norm       |                
   |          1      0   -0.288   2.192     qc      0         |                
   |          2      0    0.250   2.192     qc      0         |                
   |          3      1   -0.102   2.192     qc      0         |                
   |          4      1    0.250   2.192     qc      0         |                
   |          5      2    0.000   2.000     qc      0         |                
   |          6      2    0.250   2.000     qc      0         |                
   |         loc     3    0.000   2.192     pn      0         |                
   |                                                          |                
   | Augmentation charge Rinner = 1.398                       |                
   | Partial core correction Rc = 1.398                       |                
   ------------------------------------------------------------                
   | "3|2.2|2.2|1.4|4|5|5|30:31:32U2U2"                       |                
   ------------------------------------------------------------                
   |      Author: Chris J. Pickard, Cambridge University      |                
   ============================================================                

 Pseudo atomic calculation performed for Al 3s2 3p1

 Converged in 15 iterations to a total energy of -105.5952 eV

 Calculation parallelised over 48 processes.
 Data is distributed by k-point(48-way)

 ************************************ Title ************************************
 

 ***************************** General Parameters ******************************
  
 output verbosity                               : normal  (1)
 write checkpoint data to                       : castep.check
 type of calculation                            : single point energy
 stress calculation                             : on
 density difference calculation                 : off
 electron localisation func (ELF) calculation   : off
 Hirshfeld analysis                             : off
 unlimited duration calculation
 timing information                             : on
 memory usage estimate                          : on
 write final potential to formatted file        : off
 write final density to formatted file          : off
 write BibTeX reference list                    : on
 write OTFG pseudopotential files               : on
 write electrostatic potential file             : on
 write bands file                               : on
 checkpoint writing                             : off
  
 output         length unit                     : A
 output           mass unit                     : amu
 output           time unit                     : ps
 output         charge unit                     : e
 output           spin unit                     : hbar/2
 output         energy unit                     : eV
 output          force unit                     : eV/A
 output       velocity unit                     : A/ps
 output       pressure unit                     : GPa
 output     inv_length unit                     : 1/A
 output      frequency unit                     : cm-1
 output force constant unit                     : eV/A**2
 output         volume unit                     : A**3
 output   IR intensity unit                     : (D/A)**2/amu
 output         dipole unit                     : D
 output         efield unit                     : eV/A/e
 output        entropy unit                     : J/mol/K
  
 wavefunctions paging                           : none
 random number generator seed                   : randomised (154940061)
 data distribution                              : optimal for this architecture
 optimization strategy                          : balance speed and memory

 *********************** Exchange-Correlation Parameters ***********************
  
 using functional                               : Local Density Approximation
 relativistic treatment                         : Koelling-Harmon
 DFT+D: Semi-empirical dispersion correction    : off

 ************************* Pseudopotential Parameters **************************
  
 pseudopotential representation                 : reciprocal space
 <beta|phi> representation                      : reciprocal space
 spin-orbit coupling                            : off

 **************************** Basis Set Parameters *****************************
  
 plane wave basis set cut-off                   :   600.0000   eV
 size of standard grid                          :     1.7500
 size of   fine   gmax                          :    21.9610   1/A
 finite basis set correction                    : automatic
 number of sample energies                      :          3
           sample  spacing                      :     5.0000   eV

 **************************** Electronic Parameters ****************************
  
 number of  electrons                           :  3.000    
 net charge of system                           :  0.000    
 net spin   of system                           :  1.000    
 number of  up  spins                           :  2.000    
 number of down spins                           :  1.000    
 treating system as spin-polarized
 number of bands                                :          6

 ********************* Electronic Minimization Parameters **********************
  
 Method: Treating system as metallic with density mixing treatment of electrons,
         and number of  SD  steps               :          1
         and number of  CG  steps               :          4
  
 total energy / atom convergence tol.           : 0.1000E-04   eV
 eigen-energy convergence tolerance             : 0.1000E-05   eV
 max force / atom convergence tol.              : ignored
 convergence tolerance window                   :          3   cycles
 max. number of SCF cycles                      :        250
 number of fixed-spin iterations                :         10
 smearing scheme                                : Gaussian
 smearing width                                 : 0.1000       eV
 Fermi energy convergence tolerance             : 0.2721E-13   eV
 periodic dipole correction                     : NONE

 ************************** Density Mixing Parameters **************************
  
 density-mixing scheme                          : Pulay
 max. length of mixing history                  :         20
 charge density mixing amplitude                : 0.8000    
   spin density mixing amplitude                :  2.000    
 cut-off energy for mixing                      :  600.0       eV

 *********************** Population Analysis Parameters ************************
  
 Population analysis with cutoff                :  3.000       A

 *******************************************************************************
  

                           -------------------------------
                                      Unit Cell
                           -------------------------------
        Real Lattice(A)                      Reciprocal Lattice(1/A)
   2.8559550   0.0000000   0.0000000        2.2000295  -1.2701875  -0.8981582
   1.4279770   2.4733290   0.0000000        0.0000000   2.5403759  -0.8981585
   1.4279770   0.8244430   2.3318770        0.0000000   0.0000000   2.6944754

                       Lattice parameters(A)       Cell Angles
                    a =    2.855955          alpha =   60.000002
                    b =    2.855954          beta  =   60.000003
                    c =    2.855954          gamma =   60.000003

                       Current cell volume =   16.471718       A**3
                                   density =    1.638053   AMU/A**3
                                           =    2.720050     g/cm^3

                           -------------------------------
                                     Cell Contents
                           -------------------------------
                         Total number of ions in cell =    1
                      Total number of species in cell =    1
                        Max number of any one species =    1

            xxxxxxxxxxxxxxxxxxxxxxxxxxxxxxxxxxxxxxxxxxxxxxxxxxxxxxxxxxxx
            x  Element    Atom        Fractional coordinates of atoms  x
            x            Number           u          v          w      x
            x----------------------------------------------------------x
            x  Al           1         0.000000   0.000000   0.000000   x 
            xxxxxxxxxxxxxxxxxxxxxxxxxxxxxxxxxxxxxxxxxxxxxxxxxxxxxxxxxxxx


                         No user defined ionic velocities

                           -------------------------------
                                   Details of Species
                           -------------------------------

                               Mass of species in AMU
                                    Al   26.9815400

                          Electric Quadrupole Moment (Barn)
                                    Al    0.1466000 Isotope 27

                          Files used for pseudopotentials:
                                    Al 3|2.2|2.2|1.4|4|5|5|30:31:32U2U2

                           -------------------------------
                              k-Points For BZ Sampling
                           -------------------------------
                       MP grid size for SCF calculation is 11 11 11
                            with an offset of   0.000  0.000  0.000
                       Number of kpoints used =           666

                           -------------------------------
                               Symmetry and Constraints
                           -------------------------------

                      Maximum deviation from symmetry =  0.00000         ANG

                      Number of symmetry operations   =           1
                      Number of ionic constraints     =           3
                      Point group of crystal =     1: C1, 1, 1
                      Space group of crystal =   225: Fm-3m, -F 4 2 3

             Set iprint > 1 for details on symmetry rotations/translations

                         Centre of mass is constrained
             Set iprint > 1 for details of linear ionic constraints

                         Number of cell constraints= 0
                         Cell constraints are:  1 2 3 4 5 6

                         External pressure/stress (GPa)
                          0.00000   0.00000   0.00000
                                    0.00000   0.00000
                                              0.00000
  
+---------------- MEMORY AND SCRATCH DISK ESTIMATES PER PROCESS --------------+
|                                                     Memory          Disk    |
| Baseline code, static data and system overhead      184.0 MB         0.0 MB |
| BLAS internal memory storage                          0.0 MB         0.0 MB |
| Model and support data                               19.9 MB        11.0 MB |
| Electronic energy minimisation requirements           5.4 MB         0.0 MB |
| Force calculation requirements                        1.8 MB         0.0 MB |
| Stress calculation requirements                       1.8 MB         0.0 MB |
|                                               ----------------------------- |
| Approx. total storage required per process          209.3 MB        11.0 MB |
|                                                                             |
| Requirements will fluctuate during execution and may exceed these estimates |
+-----------------------------------------------------------------------------+
Calculating finite basis set correction with  3 cut-off energies.
Calculating total energy with cut-off of  590.000 eV.
------------------------------------------------------------------------ <-- SCF
SCF loop      Energy           Fermi           Energy gain       Timer   <-- SCF
                               energy          per atom          (sec)   <-- SCF
------------------------------------------------------------------------ <-- SCF
Initial   2.19193577E+001  0.00000000E+000                         7.78  <-- SCF
      1  -1.04199314E+002  7.55714550E+000   1.26118672E+002       8.04  <-- SCF
      2  -1.08773178E+002  5.78129436E+000   4.57386362E+000       8.26  <-- SCF
      3  -1.08829438E+002  5.75855208E+000   5.62602223E-002       8.47  <-- SCF
      4  -1.08809126E+002  5.72769837E+000  -2.03116406E-002       8.72  <-- SCF
      5  -1.08806543E+002  5.71197415E+000  -2.58340067E-003       8.97  <-- SCF
      6  -1.08807797E+002  5.71277366E+000   1.25442595E-003       9.22  <-- SCF
      7  -1.08807812E+002  5.71261255E+000   1.48714824E-005       9.41  <-- SCF
      8  -1.08807816E+002  5.71256552E+000   4.39520183E-006       9.59  <-- SCF
      9  -1.08807817E+002  5.71257692E+000   7.58800980E-008       9.76  <-- SCF
     10  -1.09568306E+002  5.35009846E+000   7.60489809E-001       9.93  <-- SCF
     11  -1.09708432E+002  5.37357985E+000   1.40125775E-001      10.15  <-- SCF
     12  -1.09790520E+002  5.26754783E+000   8.20879191E-002      10.38  <-- SCF
     13  -1.09790551E+002  5.26746201E+000   3.09805099E-005      10.62  <-- SCF
     14  -1.09790599E+002  5.26745247E+000   4.82279503E-005      10.80  <-- SCF
     15  -1.09790600E+002  5.26746235E+000   6.35261741E-007      10.96  <-- SCF
     16  -1.09790600E+002  5.26746324E+000   6.68094060E-008      11.12  <-- SCF
------------------------------------------------------------------------ <-- SCF
 
Integrated Spin Density     =    0.135620E-04 hbar/2                        
Integrated |Spin Density|   =    0.242632E-04 hbar/2                        
 
Final energy, E             =  -109.7875997015     eV
Final free energy (E-TS)    =  -109.7905999717     eV
(energies not corrected for finite basis set)
 
NB est. 0K energy (E-0.5TS)      =  -109.7890998366     eV
 
Calculating total energy with cut-off of  595.000 eV.
------------------------------------------------------------------------ <-- SCF
SCF loop      Energy           Fermi           Energy gain       Timer   <-- SCF
                               energy          per atom          (sec)   <-- SCF
------------------------------------------------------------------------ <-- SCF
Initial  -1.09787600E+002  0.00000000E+000                        11.21  <-- SCF
      1  -1.09790600E+002  5.26746391E+000   3.00031825E-003      11.35  <-- SCF
      2  -1.09790600E+002  5.26746391E+000   2.12441686E-011      11.51  <-- SCF
      3  -1.09790600E+002  5.26746388E+000   1.31380319E-010      11.66  <-- SCF
      4  -1.09790600E+002  5.26746387E+000   1.85856265E-011      11.82  <-- SCF
------------------------------------------------------------------------ <-- SCF
 
Integrated Spin Density     =    0.996818E-07 hbar/2                        
Integrated |Spin Density|   =    0.396931E-06 hbar/2                        
 
Final energy, E             =  -109.7875997548     eV
Final free energy (E-TS)    =  -109.7906000222     eV
(energies not corrected for finite basis set)
 
NB est. 0K energy (E-0.5TS)      =  -109.7890998885     eV
 
Calculating total energy with cut-off of  600.000 eV.
------------------------------------------------------------------------ <-- SCF
SCF loop      Energy           Fermi           Energy gain       Timer   <-- SCF
                               energy          per atom          (sec)   <-- SCF
------------------------------------------------------------------------ <-- SCF
Initial  -1.09787600E+002  0.00000000E+000                        11.91  <-- SCF
      1  -1.09790600E+002  5.26746382E+000   3.00031695E-003      12.05  <-- SCF
      2  -1.09790600E+002  5.26746382E+000   1.07066743E-011      12.21  <-- SCF
      3  -1.09790600E+002  5.26746383E+000   3.86697040E-012      12.37  <-- SCF
      4  -1.09790600E+002  5.26746382E+000   1.93348520E-013      12.53  <-- SCF
------------------------------------------------------------------------ <-- SCF
 
Integrated Spin Density     =   -0.947010E-09 hbar/2                        
Integrated |Spin Density|   =    0.680045E-08 hbar/2                        
 
Final energy, E             =  -109.7875998043     eV
Final free energy (E-TS)    =  -109.7906000718     eV
(energies not corrected for finite basis set)
 
NB est. 0K energy (E-0.5TS)      =  -109.7890999380     eV
 
 For future reference: finite basis dEtot/dlog(Ecut) =      -0.000006eV
 Total energy corrected for finite basis set =    -109.790600 eV

 ******************* Unconstrained Forces *******************
 *                                                          *
 *               Cartesian components (eV/A)                *
 * -------------------------------------------------------- *
 *                         x            y            z      *
 *                                                          *
 * Al              1      0.00000      0.00000      0.00000 *
 *                                                          *
 ************************************************************

 ******************** Constrained Forces ********************
 *                                                          *
 *               Cartesian components (eV/A)                *
 * -------------------------------------------------------- *
 *                         x            y            z      *
 *                                                          *
 * Al              1      0.00000      0.00000      0.00000 *
 *                                                          *
 ************************************************************

 ***************** Stress Tensor *****************
 *                                               *
 *          Cartesian components (GPa)           *
 * --------------------------------------------- *
 *             x             y             z     *
 *                                               *
 *  x      3.101477      0.000034      0.000024  *
 *  y      0.000034      3.101470      0.000002  *
 *  z      0.000024      0.000002      3.101466  *
 *                                               *
 *  Pressure:   -3.1015                          *
 *                                               *
 *************************************************

 Pseudo atomic calculation performed for Al 3s2 3p1

 Converged in 15 iterations to a total energy of -105.5952 eV

Charge spilling parameter for spin component 1 = 1.23%
Charge spilling parameter for spin component 2 = 1.23%

     Atomic Populations (Mulliken)
     -----------------------------
Species          Ion     s      p      d      f     Total  Charge (e)  Spin (hbar/2)
==================================================================================
  Al              1     1.14   1.86   0.00   0.00   3.00     0.00       -0.00
==================================================================================

                 Bond                   Population        Spin       Length (A)
================================================================================
================================================================================

 
 A BibTeX formatted list of references used in this run has been written to 
 castep.bib
 
Initialisation time =      5.81 s
Calculation time    =      7.42 s
Finalisation time   =      0.07 s
Total time          =     13.30 s
Peak Memory Use     = 453412 kB
  
Overall parallel efficiency rating: Mediocre (54%)                              
  
Data was distributed by:-
k-point (48-way); efficiency rating: Mediocre (55%)                             
  
Parallel notes:
1) Calculation only took 13.3 s, so efficiency estimates may be inaccurate.     
