32
Lattice="10.005881766699119 0.007999354847586768 0.0022212996667322266 4.301746692944637 9.03397439734906 0.0022207725125417796 -7.152627548125645 -4.520237242103819 5.333606442332981" Properties=species:S:1:pos:R:3:force:R:3 virial="1.768065698220634 0.03908431460696291 -0.3785081748982447 0.03908431460696291 1.7295441158920437 -0.239043857031006 -0.3785081748982447 -0.239043857031006 1.5583952624152644" energy=-15397.6016633 pbc="T T T"
Ti       7.16497678       4.52174449       5.33805073      -0.11565937       0.00156031       0.00021969 
Ti       2.15204002       4.51773682       5.33693786       0.00806063       0.00015031       0.00003969 
Ti       5.00410755       0.00474930       5.33693812       0.00349062       0.00230031       0.00001969 
Ti       0.00116667       0.00074962       5.33582747       0.00150063      -0.00028969      -0.00005031 
Ti      10.73128467       6.78185511       2.67124529       0.00533062       0.00202031      -0.00226031 
Ti       5.72835379       6.77785544       2.67013464       0.00155062       0.00178031      -0.00238031 
Ti       8.58041132       2.26486791       2.67013490       0.00163062       0.00173031       0.00223969 
Ti       3.57747044       2.26086823       2.66902425       0.00532062       0.00200031       0.00216969 
Al      -3.57574044      -2.25974382       5.33471696       0.00042062      -0.00000969       0.00002969 
Al       1.42720044      -2.25574414       5.33582761       0.00910063      -0.01353969       0.00030969 
Al      -1.42486710       2.25724338       5.33582734       0.00926062      -0.01389969      -0.00031031 
Al       3.57807378       2.26124306       5.33693799       0.00040062       0.00008031      -0.00000031 
Al       0.00057333       0.00037480       2.66791373       0.00066062      -0.00029969       0.00000969 
Al       5.00350421       0.00437447       2.66902438      -0.00186937      -0.00141969      -0.00005031 
Al       2.15144668       4.51736200       2.66902412      -0.00182938      -0.00141969       0.00008969 
Al       7.15438756       4.52136168       2.67013477       0.00093063      -0.00075969      -0.00001031 
Al       2.50177132       0.00213307       1.33451219       0.00997063       0.00200031       0.00303969 
Al       7.50471220       0.00613274       1.33562284       0.00906063       0.00190031      -0.00279031 
Al       4.65265467       4.51912027       1.33562258       0.00020062       0.00183031       0.00114969 
Al       9.65558555       4.52311994       1.33673322       0.00044062       0.00185031      -0.00107031 
Al      -1.07453245      -2.25798555       4.00131541       0.00114062       0.00093031       0.00003969 
Al       3.92840843      -2.25398587       4.00242606       0.00400062       0.00496031      -0.00250031 
Al       1.07634090       2.25900165       4.00242580       0.00143063       0.00123031      -0.00004031 
Al       6.07928178       2.26300133       4.00353645       0.00377062       0.00451031       0.00231969 
Al       1.07566910       2.25873514       1.33451206       0.00511062       0.00260031       0.00268969 
Al       6.07861999       2.26273483       1.33562271       0.00301063      -0.00131969       0.00013969 
Al       3.22654245       6.77572234       1.33562244       0.00485062       0.00221031      -0.00250031 
Al       8.22948333       6.77972202       1.33673309       0.00321062      -0.00104969      -0.00017031 
Al      -2.50064467      -0.00138348       4.00131528       0.00182062      -0.00016969      -0.00125031 
Al       2.50230622       0.00261620       4.00242593       0.00212063      -0.00007969       0.00127969 
Al      -0.34976132       4.51560373       4.00242567       0.01129063      -0.00067969      -0.00329031 
Al       4.65317956       4.51960340       4.00353632       0.01027063      -0.00070969       0.00288969 
