32
Lattice="10.005881766699119 0.007999354847586768 0.0022212996667322266 4.301746692944637 9.03397439734906 0.0022207725125417796 -7.152627548125645 -4.520237242103819 5.333606442332981" Properties=species:S:1:pos:R:3:force:R:3 virial="1.7697027375758994 0.040652140901252076 -0.37918525919040413 0.040652140901252076 1.7291168004721031 -0.23977209880301742 -0.37918525919040413 -0.23977209880301742 1.5558103050509755" energy=-15397.6061349 pbc="T T T"
Ti       7.16497678       4.52174449       5.33805073      -0.11558031       0.00150031       0.00023938 
Ti       2.15204002       4.51773682       5.33693786       0.00806969       0.00016031       0.00004938 
Ti       5.00410755       0.00474930       5.33693812       0.00350969       0.00230031       0.00001938 
Ti       0.00116667       0.00074962       5.33582747       0.00147969      -0.00030969      -0.00005062 
Ti      10.73128467       6.78185511       2.67124529       0.00534969       0.00201031      -0.00226063 
Ti       5.72835379       6.77785544       2.67013464       0.00153969       0.00178031      -0.00236063 
Ti       8.58041132       2.26486791       2.67013490       0.00165969       0.00172031       0.00224937 
Ti       3.57747044       2.26086823       2.66902425       0.00532969       0.00199031       0.00215937 
Al      -3.57574044      -2.25974382       5.33471696       0.00048969      -0.00013969      -0.00021062 
Al       1.42720044      -2.25574414       5.33582761       0.00905969      -0.01352969      -0.00003062 
Al      -1.42486710       2.25724338       5.33582734       0.00928969      -0.01389969       0.00002938 
Al       3.57807378       2.26124306       5.33693799       0.00029969       0.00020031       0.00023938 
Al       0.00057333       0.00037480       2.66791373       0.00077969      -0.00055969       0.00001938 
Al       5.00350421       0.00437447       2.66902438      -0.00174031      -0.00159969      -0.00021062 
Al       2.15144668       4.51736200       2.66902412      -0.00197031      -0.00122969       0.00023938 
Al       7.15438756       4.52136168       2.67013477       0.00080969      -0.00048969      -0.00003062 
Al       2.50177132       0.00213307       1.33451219       0.00970969       0.00173031       0.00290937 
Al       7.50471220       0.00613274       1.33562284       0.00897969       0.00155031      -0.00296063 
Al       4.65265467       4.51912027       1.33562258       0.00060969       0.00208031       0.00108938 
Al       9.65558555       4.52311994       1.33673322       0.00036969       0.00223031      -0.00113062 
Al      -1.07453245      -2.25798555       4.00131541       0.00116969       0.00104031       0.00001938 
Al       3.92840843      -2.25398587       4.00242606       0.00389969       0.00469031      -0.00261063 
Al       1.07634090       2.25900165       4.00242580       0.00146969       0.00114031       0.00029937 
Al       6.07928178       2.26300133       4.00353645       0.00378969       0.00472031       0.00254937 
Al       1.07566910       2.25873514       1.33451206       0.00508969       0.00238031       0.00243937 
Al       6.07861999       2.26273483       1.33562271       0.00294969      -0.00122969      -0.00020063 
Al       3.22654245       6.77572234       1.33562244       0.00494969       0.00249031      -0.00238063 
Al       8.22948333       6.77972202       1.33673309       0.00317969      -0.00115969      -0.00016063 
Al      -2.50064467      -0.00138348       4.00131528       0.00189969      -0.00052969      -0.00118063 
Al       2.50230622       0.00261620       4.00242593       0.00169969      -0.00030969       0.00132938 
Al      -0.34976132       4.51560373       4.00242567       0.01136969      -0.00032969      -0.00314063 
Al       4.65317956       4.51960340       4.00353632       0.01048969      -0.00039969       0.00303937 
