32
Lattice="10.17577464 0.0 0.0 4.367439571484715 9.190857474332661 0.0 -7.271607105744269 -4.595428737167539 5.436189322068478" Properties=species:S:1:pos:R:3:force:R:3 virial="-15.351618471100974 0.8731234116084887 -0.21614761886000752 0.8731234116084887 -16.18282292146538 -0.13648255284693422 -0.21614761886000752 -0.13648255284693422 -17.3067492869639" energy=-15397.2093808 pbc="T T T"
Ti       0.01000279       0.00000000       0.00000000      -0.09819969       0.00078000       0.00011938 
Ti       5.08788732       0.00000000       0.00000000       0.00720031       0.00013000       0.00004938 
Ti       2.18371979       4.59542874       0.00000000       0.00309031       0.00209000       0.00003938 
Ti       7.27160711       4.59542874       0.00000000       0.00120031      -0.00021000      -0.00004062 
Ti      -3.63580355      -2.29771437       2.71809466       0.00474031       0.00183000      -0.00205063 
Ti       1.45208377      -2.29771437       2.71809466       0.00132031       0.00158000      -0.00205063 
Ti      -1.45208377       2.29771437       2.71809466       0.00139031       0.00153000       0.00193938 
Ti       3.63580355       2.29771437       2.71809466       0.00470031       0.00183000       0.00194937 
Al       3.63580355       2.29771437       0.00000000       0.00029031       0.00012000      -0.00013062 
Al       8.72369087       2.29771437       0.00000000       0.00781031      -0.01133000       0.00033938 
Al       5.81952334       6.89314311       0.00000000       0.00781031      -0.01137000      -0.00033062 
Al      10.90741066       6.89314311       0.00000000       0.00047031      -0.00012000       0.00016938 
Al      -0.00000000      -0.00000000       2.71809466       0.00076031      -0.00022000      -0.00015062 
Al       5.08788732      -0.00000000       2.71809466      -0.00149969      -0.00137000       0.00012938 
Al       2.18371979       4.59542874       2.71809466      -0.00164969      -0.00110000      -0.00012062 
Al       7.27160711       4.59542874       2.71809466       0.00110031      -0.00082000       0.00012938 
Al       2.54394366      -0.00000000       1.35904733       0.00752031       0.00187000       0.00184938 
Al       7.63183098      -0.00000000       1.35904733       0.00724031       0.00174000      -0.00167063 
Al       4.72766345       4.59542874       1.35904733       0.00024031       0.00167000       0.00090938 
Al       9.81555077       4.59542874       1.35904733       0.00047031       0.00166000      -0.00090062 
Al      -1.09185989      -2.29771437       4.07714199       0.00100031       0.00103000       0.00002938 
Al       3.99602743      -2.29771437       4.07714199       0.00358031       0.00370000      -0.00177063 
Al       1.09185989       2.29771437       4.07714199       0.00114031       0.00105000      -0.00016062 
Al       6.17974721       2.29771437       4.07714199       0.00352031       0.00360000       0.00190938 
Al       1.09185989       2.29771437       1.35904733       0.00435031       0.00178000       0.00193938 
Al       6.17974721       2.29771437       1.35904733       0.00279031      -0.00101000       0.00011938 
Al       3.27557968       6.89314311       1.35904733       0.00424031       0.00165000      -0.00204062 
Al       8.36346700       6.89314311       1.35904733       0.00287031      -0.00103000      -0.00002062 
Al      -2.54394366      -0.00000000       4.07714199       0.00159031      -0.00012000      -0.00118063 
Al       2.54394366      -0.00000000       4.07714199       0.00186031      -0.00006000       0.00126938 
Al      -0.36022387       4.59542874       4.07714199       0.00865031      -0.00042000      -0.00221062 
Al       4.72766345       4.59542874       4.07714199       0.00840031      -0.00046000       0.00193938 
