32
Lattice="10.005881766699119 0.007999354847586768 0.0022212996667322266 4.301746692944637 9.03397439734906 0.0022207725125417796 -7.152627548125645 -4.520237242103819 5.333606442332981" Properties=species:S:1:pos:R:3:force:R:3 virial="1.7651406940785053 0.04155191069394394 -0.37983826937439785 0.04155191069394394 1.725626054788081 -0.24010311779029536 -0.37983826937439785 -0.24010311779029536 1.5527859952126635" energy=-15397.6061332 pbc="T T T"
Ti       7.14782827       4.51721626       5.34338212       0.08206062       0.05186063      -0.06340031 
Ti       2.15204002       4.51773682       5.33693786      -0.00579937      -0.00116937       0.00111969 
Ti       5.00410755       0.00474930       5.33693812      -0.00353937      -0.00472937       0.00110969 
Ti       0.00116667       0.00074962       5.33582747      -0.00095937      -0.00059937       0.00122969 
Ti      10.73128467       6.78185511       2.67124529      -0.00593937      -0.00374937       0.00430969 
Ti       5.72835379       6.77785544       2.67013464      -0.00315937       0.00068063      -0.00069031 
Ti       8.58041132       2.26486791       2.67013490      -0.00077937      -0.00315937      -0.00070031 
Ti       3.57747044       2.26086823       2.66902425      -0.00354937      -0.00225937      -0.00014031 
Al      -3.57574044      -2.25974382       5.33471696      -0.00028937      -0.00026937      -0.00000031 
Al       1.42720044      -2.25574414       5.33582761      -0.00045937      -0.00010937       0.00087969 
Al      -1.42486710       2.25724338       5.33582734      -0.00027937      -0.00034937       0.00102969 
Al       3.57807378       2.26124306       5.33693799      -0.00032937      -0.00011937       0.00038969 
Al       0.00057333       0.00037480       2.66791373      -0.00025937      -0.00025937       0.01695969 
Al       5.00350421       0.00437447       2.66902438       0.00206063       0.00110063       0.00010969 
Al       2.15144668       4.51736200       2.66902412       0.00187063       0.00138063       0.00022969 
Al       7.15438756       4.52136168       2.67013477      -0.00039937      -0.00016937       0.01616969 
Al       2.50177132       0.00213307       1.33451219      -0.00672937       0.00018063      -0.00062031 
Al       7.50471220       0.00613274       1.33562284      -0.01036938      -0.00125937       0.00507969 
Al       4.65265467       4.51912027       1.33562258      -0.00104937      -0.00059937      -0.00020031 
Al       9.65558555       4.52311994       1.33673322      -0.00225937       0.00031063       0.00111969 
Al      -1.07453245      -2.25798555       4.00131541      -0.00243937       0.00040063       0.00122969 
Al       3.92840843      -2.25398587       4.00242606      -0.00628937      -0.00589937       0.00459969 
Al       1.07634090       2.25900165       4.00242580      -0.00261937       0.00125063       0.00010969 
Al       6.07928178       2.26300133       4.00353645      -0.00424937      -0.00413937      -0.00064031 
Al       1.07566910       2.25873514       1.33451206      -0.00266937      -0.00618937      -0.00061031 
Al       6.07861999       2.26273483       1.33562271      -0.00107937      -0.00074937      -0.00027031 
Al       3.22654245       6.77572234       1.33562244      -0.00549937      -0.00876937       0.00516969 
Al       8.22948333       6.77972202       1.33673309      -0.00071937      -0.00212937       0.00110969 
Al      -2.50064467      -0.00138348       4.00131528      -0.00066937      -0.00242937       0.00121969 
Al       2.50230622       0.00261620       4.00242593      -0.00006937      -0.00295937       0.00003969 
Al      -0.34976132       4.51560373       4.00242567      -0.00794937      -0.00309937       0.00467969 
Al       4.65317956       4.51960340       4.00353632      -0.00558937      -0.00199937      -0.00062031 
