32
Lattice="10.17577464 0.0 0.0 4.367439571484715 9.190857474332661 0.0 -7.271607105744269 -4.595428737167539 5.436189322068478" Properties=species:S:1:pos:R:3:force:R:3 virial="-15.323941167545266 0.873466125296177 -0.2158747172198114 0.873466125296177 -16.15553593072065 -0.13658092436840027 -0.2158747172198114 -0.13658092436840027 -17.279252860076692" energy=-15397.2096534 pbc="T T T"
Ti       0.00000000       0.00000000       0.00000000       0.00038094      -0.00002000      -0.00004031 
Ti       5.08788732       0.00000000       0.00000000       0.00785094      -0.01148000      -0.00001031 
Ti       2.18371979       4.59542874       0.00000000       0.00775094      -0.01123000      -0.00000031 
Ti       7.27160711       4.59542874       0.00000000       0.00037094      -0.00000000       0.00001969 
Ti      -3.63580355      -2.29771437       2.71809466       0.00094094      -0.00052000      -0.00000031 
Ti       1.45208377      -2.29771437       2.71809466      -0.00159906      -0.00123000      -0.00002031 
Ti      -1.45208377       2.29771437       2.71809466      -0.00156906      -0.00125000      -0.00001031 
Ti       3.63580355       2.29771437       2.71809466       0.00094094      -0.00052000      -0.00004031 
Al       3.64580634       2.29771437       0.00000000      -0.05009906       0.01780000       0.00012969 
Al       8.72369087       2.29771437       0.00000000       0.00120094       0.00032000       0.00017969 
Al       5.81952334       6.89314311       0.00000000       0.00079094       0.00050000      -0.00014031 
Al      10.90741066       6.89314311       0.00000000       0.00004094       0.00060000      -0.00011031 
Al      -0.00000000      -0.00000000       2.71809466       0.00047094       0.00114000      -0.00024031 
Al       5.08788732      -0.00000000       2.71809466      -0.00027906      -0.00176000       0.00161969 
Al       2.18371979       4.59542874       2.71809466      -0.00017906      -0.00188000      -0.00162031 
Al       7.27160711       4.59542874       2.71809466       0.00064094       0.00096000       0.00024969 
Al       2.54394366      -0.00000000       1.35904733      -0.00020906       0.00456000      -0.00302031 
Al       7.63183098      -0.00000000       1.35904733      -0.00053906       0.00085000      -0.00007031 
Al       4.72766345       4.59542874       1.35904733      -0.00003906       0.00445000       0.00300969 
Al       9.81555077       4.59542874       1.35904733      -0.00087906       0.00063000       0.00005969 
Al      -1.09185989      -2.29771437       4.07714199       0.00790094       0.00033000      -0.00488031 
Al       3.99602743      -2.29771437       4.07714199       0.00748094       0.00007000       0.00483969 
Al       1.09185989       2.29771437       4.07714199      -0.00144906       0.00055000      -0.00032031 
Al       6.17974721       2.29771437       4.07714199      -0.00123906       0.00070000       0.00023969 
Al       1.09185989       2.29771437       1.35904733       0.00873094      -0.00182000      -0.00472031 
Al       6.17974721       2.29771437       1.35904733       0.00924094      -0.00168000       0.00499969 
Al       3.27557968       6.89314311       1.35904733      -0.00000906      -0.00120000      -0.00036031 
Al       8.36346700       6.89314311       1.35904733      -0.00012906      -0.00148000       0.00021969 
Al      -2.54394366      -0.00000000       4.07714199       0.00132094       0.00267000      -0.00303031 
Al       2.54394366      -0.00000000       4.07714199       0.00048094      -0.00117000      -0.00003031 
Al      -0.36022387       4.59542874       4.07714199       0.00102094       0.00241000       0.00302969 
Al       4.72766345       4.59542874       4.07714199       0.00066094      -0.00130000       0.00006969 
