32
Lattice="10.005881766699119 0.007999354847586768 0.0022212996667322266 4.301746692944637 9.03397439734906 0.0022207725125417796 -7.152627548125645 -4.520237242103819 5.333606442332981" Properties=species:S:1:pos:R:3:force:R:3 virial="1.7793263623151256 0.040459548035926725 -0.3787037770270908 0.040459548035926725 1.7403955201477188 -0.23935682043715967 -0.3787037770270908 -0.23935682043715967 1.5697612507329806" energy=-15397.6016564 pbc="T T T"
Ti       7.14782827       4.51721626       5.34338212       0.08210031       0.05188969      -0.06352000 
Ti       2.15204002       4.51773682       5.33693786      -0.00578969      -0.00118031       0.00111000 
Ti       5.00410755       0.00474930       5.33693812      -0.00354969      -0.00474031       0.00112000 
Ti       0.00116667       0.00074962       5.33582747      -0.00097969      -0.00062031       0.00124000 
Ti      10.73128467       6.78185511       2.67124529      -0.00593969      -0.00376031       0.00432000 
Ti       5.72835379       6.77785544       2.67013464      -0.00316969       0.00068969      -0.00069000 
Ti       8.58041132       2.26486791       2.67013490      -0.00074969      -0.00316031      -0.00071000 
Ti       3.57747044       2.26086823       2.66902425      -0.00350969      -0.00225031      -0.00012000 
Al      -3.57574044      -2.25974382       5.33471696      -0.00027969      -0.00021031       0.00049000 
Al       1.42720044      -2.25574414       5.33582761      -0.00042969      -0.00014031       0.00078000 
Al      -1.42486710       2.25724338       5.33582734      -0.00031969      -0.00032031       0.00112000 
Al       3.57807378       2.26124306       5.33693799      -0.00033969      -0.00017031      -0.00010000 
Al       0.00057333       0.00037480       2.66791373      -0.00021969      -0.00033031       0.01690000 
Al       5.00350421       0.00437447       2.66902438       0.00182031       0.00146969       0.00013000 
Al       2.15144668       4.51736200       2.66902412       0.00212031       0.00101969       0.00022000 
Al       7.15438756       4.52136168       2.67013477      -0.00044969      -0.00009031       0.01625000 
Al       2.50177132       0.00213307       1.33451219      -0.00699969       0.00016969      -0.00031000 
Al       7.50471220       0.00613274       1.33562284      -0.00986969      -0.00083031       0.00502000 
Al       4.65265467       4.51912027       1.33562258      -0.00087969      -0.00059031       0.00011000 
Al       9.65558555       4.52311994       1.33673322      -0.00267969      -0.00012031       0.00108000 
Al      -1.07453245      -2.25798555       4.00131541      -0.00175969       0.00059969       0.00123000 
Al       3.92840843      -2.25398587       4.00242606      -0.00700969      -0.00615031       0.00466000 
Al       1.07634090       2.25900165       4.00242580      -0.00257969       0.00109969      -0.00016000 
Al       6.07928178       2.26300133       4.00353645      -0.00421969      -0.00389031      -0.00085000 
Al       1.07566910       2.25873514       1.33451206      -0.00270969      -0.00644031      -0.00038000 
Al       6.07861999       2.26273483       1.33562271      -0.00111969      -0.00060031      -0.00001000 
Al       3.22654245       6.77572234       1.33562244      -0.00479969      -0.00851031       0.00511000 
Al       8.22948333       6.77972202       1.33673309      -0.00141969      -0.00232031       0.00113000 
Al      -2.50064467      -0.00138348       4.00131528      -0.00025969      -0.00201031       0.00127000 
Al       2.50230622       0.00261620       4.00242593      -0.00024969      -0.00297031      -0.00027000 
Al      -0.34976132       4.51560373       4.00242567      -0.00845969      -0.00354031       0.00475000 
Al       4.65317956       4.51960340       4.00353632      -0.00529969      -0.00199031      -0.00092000 
