32
Lattice="10.005881766699119 0.007999354847586768 0.0022212996667322266 4.301746692944637 9.03397439734906 0.0022207725125417796 -7.152627548125645 -4.520237242103819 5.333606442332981" Properties=species:S:1:pos:R:3:force:R:3 virial="1.7870421139822223 0.04165422565364803 -0.379711880306528 0.04165422565364803 1.745938583552864 -0.2395223299307986 -0.379711880306528 -0.2395223299307986 1.5724515323204942" energy=-15397.6063774 pbc="T T T"
Ti       7.15498090       4.52173649       5.33804851       0.00042875       0.00004000       0.00000969 
Ti       2.15204002       4.51773682       5.33693786       0.00923875      -0.01386000      -0.00000031 
Ti       5.00410755       0.00474930       5.33693812       0.00909875      -0.01359000      -0.00003031 
Ti       0.00116667       0.00074962       5.33582747       0.00036875       0.00001000       0.00000969 
Ti      10.73128467       6.78185511       2.67124529       0.00079875      -0.00054000       0.00004969 
Ti       5.72835379       6.77785544       2.67013464      -0.00184125      -0.00142000       0.00003969 
Ti       8.58041132       2.26486791       2.67013490      -0.00187125      -0.00143000      -0.00003031 
Ti       3.57747044       2.26086823       2.66902425       0.00079875      -0.00052000      -0.00002031 
Al      -3.56574457      -2.25973583       5.33471918      -0.05951125       0.02022000       0.00044969 
Al       1.42720044      -2.25574414       5.33582761       0.00126875       0.00052000      -0.00008031 
Al      -1.42486710       2.25724338       5.33582734       0.00091875       0.00040000       0.00008969 
Al       3.57807378       2.26124306       5.33693799      -0.00001125       0.00076000      -0.00041031 
Al       0.00057333       0.00037480       2.66791373       0.00072875       0.00106000      -0.00002031 
Al       5.00350421       0.00437447       2.66902438      -0.00051125      -0.00171000       0.00167969 
Al       2.15144668       4.51736200       2.66902412      -0.00009125      -0.00224000      -0.00168031 
Al       7.15438756       4.52136168       2.67013477       0.00052875       0.00126000      -0.00000031 
Al       2.50177132       0.00213307       1.33451219      -0.00003125       0.00537000      -0.00333031 
Al       7.50471220       0.00613274       1.33562284      -0.00071125       0.00104000      -0.00007031 
Al       4.65265467       4.51912027       1.33562258       0.00014875       0.00554000       0.00369969 
Al       9.65558555       4.52311994       1.33673322      -0.00114125       0.00057000      -0.00005031 
Al      -1.07453245      -2.25798555       4.00131541       0.01004875       0.00052000      -0.00596031 
Al       3.92840843      -2.25398587       4.00242606       0.00886875       0.00036000       0.00569969 
Al       1.07634090       2.25900165       4.00242580      -0.00164125       0.00060000      -0.00045031 
Al       6.07928178       2.26300133       4.00353645      -0.00155125       0.00069000       0.00023969 
Al       1.07566910       2.25873514       1.33451206       0.01066875      -0.00190000      -0.00562031 
Al       6.07861999       2.26273483       1.33562271       0.01109875      -0.00182000       0.00604969 
Al       3.22654245       6.77572234       1.33562244       0.00024875      -0.00156000      -0.00033031 
Al       8.22948333       6.77972202       1.33673309      -0.00056125      -0.00178000       0.00032969 
Al      -2.50064467      -0.00138348       4.00131528       0.00174875       0.00344000      -0.00347031 
Al       2.50230622       0.00261620       4.00242593       0.00046875      -0.00157000      -0.00019031 
Al      -0.34976132       4.51560373       4.00242567       0.00134875       0.00293000       0.00356969 
Al       4.65317956       4.51960340       4.00353632       0.00064875      -0.00139000      -0.00017031 
