32
Lattice="10.17577464 0.0 0.0 4.367439571484715 9.190857474332661 0.0 -7.271607105744269 -4.595428737167539 5.436189322068478" Properties=species:S:1:pos:R:3:force:R:3 virial="-15.317686642744958 0.8743990681126614 -0.20372424768131076 0.8743990681126614 -16.15130278202272 -0.13706643542595853 -0.20372424768131076 -0.13706643542595853 -17.27511808290023" energy=-15397.2095916 pbc="T T T"
Ti       0.00000000       0.00000000       0.00000000       0.00776031       0.00077969       0.00166000 
Ti       5.08788732       0.00000000       0.00000000       0.00818031       0.00075969      -0.00192000 
Ti       2.18371979       4.59542874       0.00000000       0.00105031       0.00042969       0.00083000 
Ti       7.27160711       4.59542874       0.00000000       0.00102031       0.00041969      -0.00079000 
Ti      -3.63580355      -2.29771437       2.71809466       0.00196031       0.00034969       0.00024000 
Ti       1.45208377      -2.29771437       2.71809466       0.00389031       0.00254969      -0.00180000 
Ti      -1.45208377       2.29771437       2.71809466       0.00197031       0.00037969      -0.00022000 
Ti       3.63580355       2.29771437       2.71809466       0.00395031       0.00264969       0.00185000 
Al       3.63580355       2.29771437       0.00000000       0.00059031       0.00299969      -0.00232000 
Al       8.72369087       2.29771437       0.00000000      -0.00005969      -0.00079031      -0.00058000 
Al       5.81952334       6.89314311       0.00000000       0.00054031       0.00306969       0.00266000 
Al      10.90741066       6.89314311       0.00000000      -0.00015969      -0.00073031       0.00021000 
Al      -0.00000000      -0.00000000       2.71809466       0.00835031      -0.00031031      -0.00430000 
Al       5.08788732      -0.00000000       2.71809466       0.00845031       0.00004969       0.00434000 
Al       2.18371979       4.59542874       2.71809466      -0.00066969      -0.00017031      -0.00055000 
Al       7.27160711       4.59542874       2.71809466      -0.00088969       0.00017969       0.00068000 
Al       2.55394645      -0.00000000       1.35904733      -0.06253969       0.00480969       0.00026000 
Al       7.63183098      -0.00000000       1.35904733      -0.00019969       0.00108969       0.00001000 
Al       4.72766345       4.59542874       1.35904733      -0.00047969       0.00109969       0.00025000 
Al       9.81555077       4.59542874       1.35904733       0.00039031       0.00142969       0.00001000 
Al      -1.09185989      -2.29771437       4.07714199      -0.00029969       0.00134969      -0.00024000 
Al       3.99602743      -2.29771437       4.07714199      -0.00019969      -0.00007031       0.00086000 
Al       1.09185989       2.29771437       4.07714199       0.00029031       0.00006969      -0.00099000 
Al       6.17974721       2.29771437       4.07714199      -0.00068969       0.00139969       0.00009000 
Al       1.09185989       2.29771437       1.35904733       0.00687031      -0.01060031       0.00057000 
Al       6.17974721       2.29771437       1.35904733       0.00113031      -0.00043031       0.00013000 
Al       3.27557968       6.89314311       1.35904733       0.00161031      -0.00033031       0.00004000 
Al       8.36346700       6.89314311       1.35904733       0.00657031      -0.01071031      -0.00048000 
Al      -2.54394366      -0.00000000       4.07714199       0.00128031      -0.00105031      -0.00004000 
Al       2.54394366      -0.00000000       4.07714199      -0.00079969       0.00053969      -0.00030000 
Al      -0.36022387       4.59542874       4.07714199       0.00038031      -0.00014031       0.00007000 
Al       4.72766345       4.59542874       4.07714199       0.00075031      -0.00107031      -0.00023000 
