32
Lattice="10.005881766699119 0.007999354847586768 0.0022212996667322266 4.301746692944637 9.03397439734906 0.0022207725125417796 -7.152627548125645 -4.520237242103819 5.333606442332981" Properties=species:S:1:pos:R:3:force:R:3 virial="1.7325262960410657 0.03409194642610739 -0.37859845280386595 0.03409194642610739 1.6991656006504903 -0.23931168148434903 -0.37859845280386595 -0.23931168148434903 1.530881566045426" energy=-15397.6018662 pbc="T T T"
Ti       7.15498090       4.52173649       5.33804851       0.00044875       0.00001938      -0.00001000 
Ti       2.15204002       4.51773682       5.33693786       0.00922875      -0.01387063       0.00000000 
Ti       5.00410755       0.00474930       5.33693812       0.00913875      -0.01358063      -0.00002000 
Ti       0.00116667       0.00074962       5.33582747       0.00036875       0.00002938       0.00000000 
Ti      10.73128467       6.78185511       2.67124529       0.00078875      -0.00052062       0.00003000 
Ti       5.72835379       6.77785544       2.67013464      -0.00182125      -0.00140062       0.00001000 
Ti       8.58041132       2.26486791       2.67013490      -0.00184125      -0.00142062      -0.00001000 
Ti       3.57747044       2.26086823       2.66902425       0.00080875      -0.00053062      -0.00002000 
Al      -3.56574457      -2.25973583       5.33471918      -0.05963125       0.02012937       0.00010000 
Al       1.42720044      -2.25574414       5.33582761       0.00133875       0.00036938      -0.00022000 
Al      -1.42486710       2.25724338       5.33582734       0.00083875       0.00054938       0.00023000 
Al       3.57807378       2.26124306       5.33693799      -0.00003125       0.00084938      -0.00005000 
Al       0.00057333       0.00037480       2.66791373       0.00074875       0.00090938      -0.00020000 
Al       5.00350421       0.00437447       2.66902438      -0.00033125      -0.00197062       0.00159000 
Al       2.15144668       4.51736200       2.66902412      -0.00026125      -0.00199062      -0.00159000 
Al       7.15438756       4.52136168       2.67013477       0.00050875       0.00139938       0.00019000 
Al       2.50177132       0.00213307       1.33451219       0.00009875       0.00539938      -0.00332000 
Al       7.50471220       0.00613274       1.33562284      -0.00099125       0.00063938       0.00003000 
Al       4.65265467       4.51912027       1.33562258       0.00003875       0.00553938       0.00385000 
Al       9.65558555       4.52311994       1.33673322      -0.00080125       0.00100938       0.00018000 
Al      -1.07453245      -2.25798555       4.00131541       0.00966875       0.00034938      -0.00620000 
Al       3.92840843      -2.25398587       4.00242606       0.00913875       0.00036938       0.00548000 
Al       1.07634090       2.25900165       4.00242580      -0.00133125       0.00079938      -0.00046000 
Al       6.07928178       2.26300133       4.00353645      -0.00179125       0.00065938       0.00022000 
Al       1.07566910       2.25873514       1.33451206       0.01092875      -0.00188062      -0.00561000 
Al       6.07861999       2.26273483       1.33562271       0.01079875      -0.00202062       0.00607000 
Al       3.22654245       6.77572234       1.33562244      -0.00003125      -0.00156062      -0.00011000 
Al       8.22948333       6.77972202       1.33673309      -0.00017125      -0.00159062       0.00057000 
Al      -2.50064467      -0.00138348       4.00131528       0.00139875       0.00298938      -0.00370000 
Al       2.50230622       0.00261620       4.00242593       0.00057875      -0.00156062      -0.00032000 
Al      -0.34976132       4.51560373       4.00242567       0.00162875       0.00331938       0.00346000 
Al       4.65317956       4.51960340       4.00353632       0.00053875      -0.00143062      -0.00017000 
