32
Lattice="10.005881766699119 0.007999354847586768 0.0022212996667322266 4.301746692944637 9.03397439734906 0.0022207725125417796 -7.152627548125645 -4.520237242103819 5.333606442332981" Properties=species:S:1:pos:R:3:force:R:3 virial="1.7262941112896781 0.03476903071826682 -0.3782373411813809 0.03476903071826682 1.6926595729187184 -0.2397209413231654 -0.3782373411813809 -0.2397209413231654 1.52499544659892" energy=-15397.6018636 pbc="T T T"
Ti       7.15498090       4.52173649       5.33804851      -0.00028000      -0.00018031       0.00021969 
Ti       2.15204002       4.51773682       5.33693786      -0.00038000      -0.00020031       0.00092969 
Ti       5.00410755       0.00474930       5.33693812      -0.00035000      -0.00027031       0.00096969 
Ti       0.00116667       0.00074962       5.33582747      -0.00032000      -0.00020031       0.00023969 
Ti      10.73128467       6.78185511       2.67124529      -0.00037000      -0.00025031       0.01640969 
Ti       5.72835379       6.77785544       2.67013464       0.00197000       0.00125969       0.00015969 
Ti       8.58041132       2.26486791       2.67013490       0.00198000       0.00125969       0.00015969 
Ti       3.57747044       2.26086823       2.66902425      -0.00030000      -0.00020031       0.01673969 
Al      -3.58290308      -2.26426407       5.34005056       0.03353000       0.02117969      -0.04882031 
Al       1.42720044      -2.25574414       5.33582761      -0.00094000      -0.00067031      -0.00031031 
Al      -1.42486710       2.25724338       5.33582734      -0.00104000      -0.00056031      -0.00097031 
Al       3.57807378       2.26124306       5.33693799      -0.00033000      -0.00019031      -0.00105031 
Al       0.00057333       0.00037480       2.66791373      -0.00128000      -0.00040031       0.00007969 
Al       5.00350421       0.00437447       2.66902438       0.00185000      -0.00033031       0.00148969 
Al       2.15144668       4.51736200       2.66902412       0.00035000       0.00171969       0.00147969 
Al       7.15438756       4.52136168       2.67013477      -0.00066000      -0.00083031       0.00027969 
Al       2.50177132       0.00213307       1.33451219      -0.00440000      -0.00780031       0.00599969 
Al       7.50471220       0.00613274       1.33562284      -0.00044000       0.00159969       0.00019969 
Al       4.65265467       4.51912027       1.33562258      -0.00179000      -0.00380031      -0.00332031 
Al       9.65558555       4.52311994       1.33673322       0.00020000       0.00156969      -0.00006031 
Al      -1.07453245      -2.25798555       4.00131541      -0.01069000       0.00135969       0.00616969 
Al       3.92840843      -2.25398587       4.00242606      -0.00502000       0.00259969      -0.00298031 
Al       1.07634090       2.25900165       4.00242580      -0.00025000       0.00160969       0.00012969 
Al       6.07928178       2.26300133       4.00353645       0.00015000       0.00144969      -0.00008031 
Al       1.07566910       2.25873514       1.33451206      -0.00937000      -0.00060031       0.00618969 
Al       6.07861999       2.26273483       1.33562271      -0.00388000      -0.00008031      -0.00312031 
Al       3.22654245       6.77572234       1.33562244       0.00088000      -0.00105031      -0.00003031 
Al       8.22948333       6.77972202       1.33673309       0.00183000      -0.00056031      -0.00028031 
Al      -2.50064467      -0.00138348       4.00131528      -0.00327000      -0.00992031       0.00594969 
Al       2.50230622       0.00261620       4.00242593       0.00138000      -0.00060031       0.00032969 
Al      -0.34976132       4.51560373       4.00242567       0.00004000      -0.00601031      -0.00321031 
Al       4.65317956       4.51960340       4.00353632       0.00120000      -0.00090031       0.00010969 
