32
Lattice="10.005881766699119 0.007999354847586768 0.0022212996667322266 4.301746692944637 9.03397439734906 0.0022207725125417796 -7.152627548125645 -4.520237242103819 5.333606442332981" Properties=species:S:1:pos:R:3:force:R:3 virial="1.6881817887999042 0.03182296173149313 -0.36629959279472996 0.03182296173149313 1.656205354628855 -0.23974200616781036 -0.36629959279472996 -0.23974200616781036 1.4894680814734345" energy=-15397.6017905 pbc="T T T"
Ti       7.15498090       4.52173649       5.33804851       0.00988156       0.00086969       0.00262969 
Ti       2.15204002       4.51773682       5.33693786       0.01041156       0.00084969      -0.00294031 
Ti       5.00410755       0.00474930       5.33693812       0.00117156       0.00046969       0.00085969 
Ti       0.00116667       0.00074962       5.33582747       0.00113156       0.00042969      -0.00087031 
Ti      10.73128467       6.78185511       2.67124529       0.00218156       0.00031969       0.00022969 
Ti       5.72835379       6.77785544       2.67013464       0.00443156       0.00331969      -0.00231031 
Ti       8.58041132       2.26486791       2.67013490       0.00222156       0.00038969      -0.00017031 
Ti       3.57747044       2.26086823       2.66902425       0.00445156       0.00337969       0.00232969 
Al      -3.57574044      -2.25974382       5.33471696       0.00074156       0.00370969      -0.00318031 
Al       1.42720044      -2.25574414       5.33582761      -0.00015844      -0.00058031      -0.00046031 
Al      -1.42486710       2.25724338       5.33582734       0.00080156       0.00348969       0.00301969 
Al       3.57807378       2.26124306       5.33693799      -0.00014844      -0.00078031       0.00057969 
Al       0.00057333       0.00037480       2.66791373       0.00999156      -0.00021031      -0.00494031 
Al       5.00350421       0.00437447       2.66902438       0.01036156      -0.00036031       0.00525969 
Al       2.15144668       4.51736200       2.66902412      -0.00089844       0.00021969      -0.00060031 
Al       7.15438756       4.52136168       2.67013477      -0.00085844       0.00005969       0.00046969 
Al       2.51177720       0.00214107       1.33451441      -0.07422844       0.00544969       0.00025969 
Al       7.50471220       0.00613274       1.33562284      -0.00036844       0.00114969       0.00022969 
Al       4.65265467       4.51912027       1.33562258      -0.00027844       0.00143969       0.00006969 
Al       9.65558555       4.52311994       1.33673322       0.00017156       0.00175969       0.00009969 
Al      -1.07453245      -2.25798555       4.00131541      -0.00053844       0.00165969      -0.00031031 
Al       3.92840843      -2.25398587       4.00242606      -0.00002844       0.00014969       0.00066969 
Al       1.07634090       2.25900165       4.00242580      -0.00023844       0.00000969      -0.00082031 
Al       6.07928178       2.26300133       4.00353645      -0.00040844       0.00156969       0.00010969 
Al       1.07566910       2.25873514       1.33451206       0.00768156      -0.01281031       0.00060969 
Al       6.07861999       2.26273483       1.33562271       0.00177156      -0.00030031      -0.00006031 
Al       3.22654245       6.77572234       1.33562244       0.00156156      -0.00050031       0.00024969 
Al       8.22948333       6.77972202       1.33673309       0.00788156      -0.01311031      -0.00047031 
Al      -2.50064467      -0.00138348       4.00131528       0.00155156      -0.00135031      -0.00012031 
Al       2.50230622       0.00261620       4.00242593      -0.00137844       0.00035969      -0.00012031 
Al      -0.34976132       4.51560373       4.00242567       0.00028156      -0.00009031      -0.00013031 
Al       4.65317956       4.51960340       4.00353632       0.00085156      -0.00096031      -0.00017031 
