32
Lattice="10.005881766699119 0.007999354847586768 0.0022212996667322266 4.301746692944637 9.03397439734906 0.0022207725125417796 -7.152627548125645 -4.520237242103819 5.333606442332981" Properties=species:S:1:pos:R:3:force:R:3 virial="1.756188135104397 0.038010007530069945 -0.39034360832519144 0.038010007530069945 1.7200047505313976 -0.238733902888373 -0.39034360832519144 -0.238733902888373 1.5492139994135827" energy=-15397.6018079 pbc="T T T"
Ti       7.15498090       4.52173649       5.33804851      -0.01034844      -0.00086937      -0.00287031 
Ti       2.15204002       4.51773682       5.33693786      -0.00991844      -0.00082937       0.00267969 
Ti       5.00410755       0.00474930       5.33693812      -0.00115844      -0.00048937      -0.00089031 
Ti       0.00116667       0.00074962       5.33582747      -0.00114844      -0.00045937       0.00085969 
Ti      10.73128467       6.78185511       2.67124529      -0.00215844      -0.00033937      -0.00024031 
Ti       5.72835379       6.77785544       2.67013464      -0.00444844      -0.00337938       0.00229969 
Ti       8.58041132       2.26486791       2.67013490      -0.00222844      -0.00035937       0.00019969 
Ti       3.57747044       2.26086823       2.66902425      -0.00442844      -0.00331937      -0.00228031 
Al      -3.57574044      -2.25974382       5.33471696      -0.00075844      -0.00369937       0.00290969 
Al       1.42720044      -2.25574414       5.33582761       0.00009156       0.00074063       0.00026969 
Al      -1.42486710       2.25724338       5.33582734      -0.00071844      -0.00364937      -0.00284031 
Al       3.57807378       2.26124306       5.33693799       0.00012156       0.00079063      -0.00033031 
Al       0.00057333       0.00037480       2.66791373      -0.01029844       0.00009063       0.00531969 
Al       5.00350421       0.00437447       2.66902438      -0.00985844       0.00009063      -0.00506031 
Al       2.15144668       4.51736200       2.66902412       0.00076156       0.00006063       0.00063969 
Al       7.15438756       4.52136168       2.67013477       0.00078156       0.00005063      -0.00063031 
Al       2.49177544       0.00212508       1.33450997       0.07268156      -0.00358937      -0.00003031 
Al       7.50471220       0.00613274       1.33562284      -0.00117844       0.00114063      -0.00001031 
Al       4.65265467       4.51912027       1.33562258      -0.00086844       0.00130063       0.00005969 
Al       9.65558555       4.52311994       1.33673322      -0.00171844       0.00052063       0.00004969 
Al      -1.07453245      -2.25798555       4.00131541      -0.00065844       0.00068063       0.00005969 
Al       3.92840843      -2.25398587       4.00242606      -0.00163844       0.00222063      -0.00103031 
Al       1.07634090       2.25900165       4.00242580      -0.00154844       0.00224062       0.00087969 
Al       6.07928178       2.26300133       4.00353645      -0.00070844       0.00070063      -0.00017031 
Al       1.07566910       2.25873514       1.33451206      -0.00661844       0.01076063      -0.00055031 
Al       6.07861999       2.26273483       1.33562271       0.00003156      -0.00190937      -0.00001031 
Al       3.22654245       6.77572234       1.33562244       0.00009156      -0.00189937       0.00011969 
Al       8.22948333       6.77972202       1.33673309      -0.00664844       0.01056063       0.00071969 
Al      -2.50064467      -0.00138348       4.00131528       0.00001156      -0.00095937      -0.00001031 
Al       2.50230622       0.00261620       4.00242593       0.00254156      -0.00311937      -0.00014031 
Al      -0.34976132       4.51560373       4.00242567       0.00125156      -0.00220937       0.00003969 
Al       4.65317956       4.51960340       4.00353632       0.00069156      -0.00086937      -0.00001031 
