32
Lattice="10.005881766699119 0.007999354847586768 0.0022212996667322266 4.301746692944637 9.03397439734906 0.0022207725125417796 -7.152627548125645 -4.520237242103819 5.333606442332981" Properties=species:S:1:pos:R:3:force:R:3 virial="1.7712224156538572 0.03411000200723164 -0.3824713749550178 0.03411000200723164 1.7174799784375228 -0.2344517208984047 -0.3824713749550178 -0.2344517208984047 1.5567913249587269" energy=-15397.6017971 pbc="T T T"
Ti       7.15498090       4.52173649       5.33804851      -0.00596969      -0.00099062      -0.00041937 
Ti       2.15204002       4.51773682       5.33693786      -0.00890969      -0.00239062       0.00454063 
Ti       5.00410755       0.00474930       5.33693812      -0.00057969      -0.00142063       0.00018063 
Ti       0.00116667       0.00074962       5.33582747      -0.00182969      -0.00087062       0.00088063 
Ti      10.73128467       6.78185511       2.67124529      -0.00154969      -0.00125063       0.00087063 
Ti       5.72835379       6.77785544       2.67013464      -0.00621969      -0.00747062       0.00479063 
Ti       8.58041132       2.26486791       2.67013490      -0.00152969       0.00009938       0.00021063 
Ti       3.57747044       2.26086823       2.66902425      -0.00343969      -0.00492062      -0.00037937 
Al      -3.57574044      -2.25974382       5.33471696      -0.00430969      -0.00891063       0.00546063 
Al       1.42720044      -2.25574414       5.33582761       0.00030031       0.00034938       0.00044063 
Al      -1.42486710       2.25724338       5.33582734      -0.00066969      -0.00368062      -0.00249937 
Al       3.57807378       2.26124306       5.33693799       0.00027031       0.00102938      -0.00048937 
Al       0.00057333       0.00037480       2.66791373      -0.01012969      -0.00024062       0.00538063 
Al       5.00350421       0.00437447       2.66902438      -0.00381969       0.00121937      -0.00274937 
Al       2.15144668       4.51736200       2.66902412       0.00065031      -0.00015062       0.00071063 
Al       7.15438756       4.52136168       2.67013477       0.00089031      -0.00000062      -0.00021937 
Al       2.49462870      -0.00238716       1.33984580       0.04932031       0.03294938      -0.04313938 
Al       7.50471220       0.00613274       1.33562284      -0.00058969       0.00102938      -0.00020937 
Al       4.65265467       4.51912027       1.33562258      -0.00062969       0.00115938       0.00012063 
Al       9.65558555       4.52311994       1.33673322      -0.00194969       0.00050938       0.00046063 
Al      -1.07453245      -2.25798555       4.00131541      -0.00071969       0.00107938      -0.00014937 
Al       3.92840843      -2.25398587       4.00242606      -0.00079969      -0.00004062       0.00088063 
Al       1.07634090       2.25900165       4.00242580      -0.00121969       0.00172938       0.00088063 
Al       6.07928178       2.26300133       4.00353645      -0.00076969       0.00146937      -0.00033937 
Al       1.07566910       2.25873514       1.33451206       0.00109031      -0.00134063      -0.00200937 
Al       6.07861999       2.26273483       1.33562271      -0.00017969      -0.00157062       0.00017063 
Al       3.22654245       6.77572234       1.33562244       0.00032031      -0.00133062       0.00016063 
Al       8.22948333       6.77972202       1.33673309       0.00015031      -0.00137062      -0.00073937 
Al      -2.50064467      -0.00138348       4.00131528       0.00051031      -0.00143063       0.00009063 
Al       2.50230622       0.00261620       4.00242593       0.00104031      -0.00176063       0.01352063 
Al      -0.34976132       4.51560373       4.00242567       0.00016031      -0.00045062       0.01365063 
Al       4.65317956       4.51960340       4.00353632       0.00111031      -0.00103063      -0.00005937 
