 +-------------------------------------------------+
 |                                                 |
 |      CCC   AA    SSS  TTTTT  EEEEE  PPPP        |
 |     C     A  A  S       T    E      P   P       |
 |     C     AAAA   SS     T    EEE    PPPP        |
 |     C     A  A     S    T    E      P           |
 |      CCC  A  A  SSS     T    EEEEE  P           |
 |                                                 |
 +-------------------------------------------------+
 |                                                 |
 | Welcome to Academic Release CASTEP version 17.21|          
 | Ab Initio Total Energy Program                  |
 |                                                 |
 | Authors:                                        |
 | M. Segall, M. Probert, C. Pickard, P. Hasnip,   |
 | S. Clark, K. Refson, J. R. Yates, M. Payne      |
 |                                                 |
 | Contributors:                                   |
 | P. Lindan, P. Haynes, J. White, V. Milman,      |
 | N. Govind, M. Gibson, P. Tulip, V. Cocula,      |
 | B. Montanari, D. Quigley, M. Glover,            |
 | L. Bernasconi, A. Perlov, M. Plummer,           |
 | E. McNellis, J. Meyer, J. Gale, D. Jochym       |
 | J. Aarons, B. Walker, R. Gillen, D. Jones       |
 | T. Green, I. J. Bush, C. J. Armstrong,          |
 | E. J. Higgins, E. L. Brown, M. S. McFly,        |
 | J. Wilkins, B-C. Shih, P. J. P. Byrne           |
 |                                                 |
 | Copyright (c) 2000 - 2017                       |
 |                                                 |
 |     Distributed under the terms of an           |
 |     Agreement between the United Kingdom        |
 |     Car-Parrinello (UKCP) Consortium,           |
 |     Daresbury Laboratory and Accelrys, Inc.     |
 |                                                 |
 | Please cite                                     |
 |                                                 |
 |     "First principles methods using CASTEP"     |
 |                                                 |
 |         Zeitschrift fuer Kristallographie       |
 |           220(5-6) pp. 567-570 (2005)           |
 |                                                 |
 | S. J. Clark, M. D. Segall, C. J. Pickard,       |
 | P. J. Hasnip, M. J. Probert, K. Refson,         |
 | M. C. Payne                                     |
 |                                                 |
 |       in all publications arising from          |
 |              your use of CASTEP                 |
 |                                                 |
 +-------------------------------------------------+


 Compiled for linux_x86_64_gfortran6.0-XT on Fri, 21 Jul 2017 10:20:05 +0100
 from code version 056e886bd5a1+ Castep172_branch Mon, 15 May 2017 14:45:35 +0100
 Compiler: GNU Fortran 6.3.0; Optimisation: fast
 MATHLIBS: Intel MKL(2017.0.0) (LAPACK version 3.6.0)
 FFT Lib : fftw3 version commercial-fftw-3.3.4-sse2-avx
 Fundamental constants values: CODATA 2010

 Run started: Thu, 19 Sep 2019 20:46:36 +0100

 Atomic calculation performed for Ti: 1s2 2s2 2p6 3s2 3p6 3d2 4s2

 Converged in 78 iterations to an ae energy of -23176.516 eV

   ============================================================                
   | Pseudopotential Report - Date of generation 19-09-2019   |                
   ------------------------------------------------------------                
   | Element: Ti Ionic charge: 12.00 Level of theory: LDA     |                
   | Atomic Solver: Koelling-Harmon                           |                
   |                                                          |                
   |               Reference Electronic Structure             |                
   |         Orbital         Occupation         Energy        |                
   |            3s              2.000           -2.288        |                
   |            3p              6.000           -1.425        |                
   |            4s              2.000           -0.169        |                
   |            3d              2.000           -0.164        |                
   |                                                          |                
   |                 Pseudopotential Definition               |                
   |        Beta     l      e      Rc     scheme   norm       |                
   |          1      0   -2.288   1.793     qc      0         |                
   |          2      0   -0.169   1.793     qc      0         |                
   |          3      0    0.250   1.793     qc      0         |                
   |          4      1   -1.425   1.793     qc      0         |                
   |          5      1    0.250   1.793     qc      0         |                
   |          6      2   -0.164   1.793     qc      0         |                
   |          7      2    0.250   1.793     qc      0         |                
   |         loc     3    0.000   1.793     pn      0         |                
   |                                                          |                
   | Augmentation charge Rinner = 1.263                       |                
   | Partial core correction Rc = 1.263                       |                
   ------------------------------------------------------------                
   | "3|1.8|9|10|11|30U:40:31:32(qc=5.5)"                     |                
   ------------------------------------------------------------                
   |      Author: Chris J. Pickard, Cambridge University      |                
   ============================================================                

 Pseudo atomic calculation performed for Ti 3s2 3p6 3d2 4s2

 Converged in 31 iterations to a total energy of -1585.9998 eV

 Calculation parallelised over 48 processes.
 Data is distributed by k-point(48-way)

 ************************************ Title ************************************
 

 ***************************** General Parameters ******************************
  
 output verbosity                               : normal  (1)
 write checkpoint data to                       : castep.check
 type of calculation                            : single point energy
 stress calculation                             : on
 density difference calculation                 : off
 electron localisation func (ELF) calculation   : off
 Hirshfeld analysis                             : off
 unlimited duration calculation
 timing information                             : on
 memory usage estimate                          : on
 write final potential to formatted file        : off
 write final density to formatted file          : off
 write BibTeX reference list                    : on
 write OTFG pseudopotential files               : on
 write electrostatic potential file             : on
 write bands file                               : on
 checkpoint writing                             : off
  
 output         length unit                     : A
 output           mass unit                     : amu
 output           time unit                     : ps
 output         charge unit                     : e
 output           spin unit                     : hbar/2
 output         energy unit                     : eV
 output          force unit                     : eV/A
 output       velocity unit                     : A/ps
 output       pressure unit                     : GPa
 output     inv_length unit                     : 1/A
 output      frequency unit                     : cm-1
 output force constant unit                     : eV/A**2
 output         volume unit                     : A**3
 output   IR intensity unit                     : (D/A)**2/amu
 output         dipole unit                     : D
 output         efield unit                     : eV/A/e
 output        entropy unit                     : J/mol/K
  
 wavefunctions paging                           : none
 random number generator seed                   : randomised (204636819)
 data distribution                              : optimal for this architecture
 optimization strategy                          : balance speed and memory

 *********************** Exchange-Correlation Parameters ***********************
  
 using functional                               : Local Density Approximation
 relativistic treatment                         : Koelling-Harmon
 DFT+D: Semi-empirical dispersion correction    : off

 ************************* Pseudopotential Parameters **************************
  
 pseudopotential representation                 : reciprocal space
 <beta|phi> representation                      : reciprocal space
 spin-orbit coupling                            : off

 **************************** Basis Set Parameters *****************************
  
 plane wave basis set cut-off                   :   600.0000   eV
 size of standard grid                          :     1.7500
 size of   fine   gmax                          :    21.9610   1/A
 finite basis set correction                    : automatic
 number of sample energies                      :          3
           sample  spacing                      :     5.0000   eV

 **************************** Electronic Parameters ****************************
  
 number of  electrons                           :  24.00    
 net charge of system                           :  0.000    
 treating system as non-spin-polarized
 number of bands                                :         16

 ********************* Electronic Minimization Parameters **********************
  
 Method: Treating system as metallic with density mixing treatment of electrons,
         and number of  SD  steps               :          1
         and number of  CG  steps               :          4
  
 total energy / atom convergence tol.           : 0.1000E-04   eV
 eigen-energy convergence tolerance             : 0.1000E-05   eV
 max force / atom convergence tol.              : ignored
 convergence tolerance window                   :          3   cycles
 max. number of SCF cycles                      :        250
 number of fixed-spin iterations                :         10
 smearing scheme                                : Gaussian
 smearing width                                 : 0.1000       eV
 Fermi energy convergence tolerance             : 0.2721E-13   eV
 periodic dipole correction                     : NONE

 ************************** Density Mixing Parameters **************************
  
 density-mixing scheme                          : Pulay
 max. length of mixing history                  :         20
 charge density mixing amplitude                : 0.8000    
 cut-off energy for mixing                      :  600.0       eV

 *********************** Population Analysis Parameters ************************
  
 Population analysis with cutoff                :  3.000       A

 *******************************************************************************
  

                           -------------------------------
                                      Unit Cell
                           -------------------------------
        Real Lattice(A)                      Reciprocal Lattice(1/A)
   3.1657310   0.0000000   0.0000000        1.9847502   0.0000000   0.0000000
   0.0000000   3.1657310   0.0000000        0.0000000   1.9847502   0.0000000
   0.0000000   0.0000000   3.1657310        0.0000000   0.0000000   1.9847502

                       Lattice parameters(A)       Cell Angles
                    a =    3.165731          alpha =   90.000000
                    b =    3.165731          beta  =   90.000000
                    c =    3.165731          gamma =   90.000000

                       Current cell volume =   31.726490       A**3
                                   density =    3.017478   AMU/A**3
                                           =    5.010640     g/cm^3

                           -------------------------------
                                     Cell Contents
                           -------------------------------
                         Total number of ions in cell =    2
                      Total number of species in cell =    1
                        Max number of any one species =    2

            xxxxxxxxxxxxxxxxxxxxxxxxxxxxxxxxxxxxxxxxxxxxxxxxxxxxxxxxxxxx
            x  Element    Atom        Fractional coordinates of atoms  x
            x            Number           u          v          w      x
            x----------------------------------------------------------x
            x  Ti           1         0.000000   0.000000   0.000000   x 
            x  Ti           2         0.500000   0.500000   0.500000   x 
            xxxxxxxxxxxxxxxxxxxxxxxxxxxxxxxxxxxxxxxxxxxxxxxxxxxxxxxxxxxx


                         No user defined ionic velocities

                           -------------------------------
                                   Details of Species
                           -------------------------------

                               Mass of species in AMU
                                    Ti   47.8670000

                          Electric Quadrupole Moment (Barn)
                                    Ti    0.3020000 Isotope 47

                          Files used for pseudopotentials:
                                    Ti 3|1.8|9|10|11|30U:40:31:32(qc=5.5)

                           -------------------------------
                              k-Points For BZ Sampling
                           -------------------------------
                       MP grid size for SCF calculation is  8  8  8
                            with an offset of   0.000  0.000  0.000
                       Number of kpoints used =           256

                           -------------------------------
                               Symmetry and Constraints
                           -------------------------------

                      Cell is a supercell containing 2 primitive cells
                      Maximum deviation from symmetry =  0.00000         ANG

                      Number of symmetry operations   =           1
                      Number of ionic constraints     =           3
                      Point group of crystal =     1: C1, 1, 1
                      Space group of crystal =   229: Im-3m, -I 4 2 3

             Set iprint > 1 for details on symmetry rotations/translations

                         Centre of mass is constrained
             Set iprint > 1 for details of linear ionic constraints

                         Number of cell constraints= 0
                         Cell constraints are:  1 2 3 4 5 6

                         External pressure/stress (GPa)
                          0.00000   0.00000   0.00000
                                    0.00000   0.00000
                                              0.00000
  
+---------------- MEMORY AND SCRATCH DISK ESTIMATES PER PROCESS --------------+
|                                                     Memory          Disk    |
| Baseline code, static data and system overhead      172.0 MB         0.0 MB |
| BLAS internal memory storage                          0.0 MB         0.0 MB |
| Model and support data                               23.4 MB        20.9 MB |
| Electronic energy minimisation requirements           7.9 MB         0.0 MB |
| Force calculation requirements                        2.0 MB         0.0 MB |
| Stress calculation requirements                       2.2 MB         0.0 MB |
|                                               ----------------------------- |
| Approx. total storage required per process          203.2 MB        20.9 MB |
|                                                                             |
| Requirements will fluctuate during execution and may exceed these estimates |
+-----------------------------------------------------------------------------+
Calculating finite basis set correction with  3 cut-off energies.
Calculating total energy with cut-off of  590.000 eV.
------------------------------------------------------------------------ <-- SCF
SCF loop      Energy           Fermi           Energy gain       Timer   <-- SCF
                               energy          per atom          (sec)   <-- SCF
------------------------------------------------------------------------ <-- SCF
Initial  -2.90001213E+003  0.00000000E+000                         9.49  <-- SCF
      1  -3.13501782E+003  1.14777073E+001   1.17502842E+002       9.83  <-- SCF
      2  -3.18682617E+003  9.71494481E+000   2.59041768E+001      10.12  <-- SCF
      3  -3.18738378E+003  9.68170196E+000   2.78803630E-001      10.43  <-- SCF
      4  -3.18723926E+003  9.05790227E+000  -7.22615452E-002      10.76  <-- SCF
      5  -3.18713655E+003  9.30211189E+000  -5.13543414E-002      11.11  <-- SCF
      6  -3.18713746E+003  9.29279142E+000   4.55534892E-004      11.53  <-- SCF
      7  -3.18713691E+003  9.29204419E+000  -2.76283631E-004      11.87  <-- SCF
      8  -3.18713690E+003  9.28981748E+000  -2.84706141E-006      12.11  <-- SCF
      9  -3.18713690E+003  9.29004250E+000   2.13831282E-007      12.33  <-- SCF
------------------------------------------------------------------------ <-- SCF
 
Final energy, E             =  -3187.114045201     eV
Final free energy (E-TS)    =  -3187.136900494     eV
(energies not corrected for finite basis set)
 
NB est. 0K energy (E-0.5TS)      =  -3187.125472847     eV
 
Calculating total energy with cut-off of  595.000 eV.
------------------------------------------------------------------------ <-- SCF
SCF loop      Energy           Fermi           Energy gain       Timer   <-- SCF
                               energy          per atom          (sec)   <-- SCF
------------------------------------------------------------------------ <-- SCF
Initial  -3.18711405E+003  0.00000000E+000                        12.47  <-- SCF
      1  -3.18713694E+003  9.29019301E+000   1.14457529E-002      12.70  <-- SCF
      2  -3.18713694E+003  9.29019300E+000   3.96188519E-008      12.91  <-- SCF
      3  -3.18713694E+003  9.29023207E+000   9.74797500E-008      13.13  <-- SCF
      4  -3.18713694E+003  9.29022711E+000  -1.00768995E-007      13.34  <-- SCF
------------------------------------------------------------------------ <-- SCF
 
Final energy, E             =  -3187.114078681     eV
Final free energy (E-TS)    =  -3187.136936762     eV
(energies not corrected for finite basis set)
 
NB est. 0K energy (E-0.5TS)      =  -3187.125507721     eV
 
Calculating total energy with cut-off of  600.000 eV.
------------------------------------------------------------------------ <-- SCF
SCF loop      Energy           Fermi           Energy gain       Timer   <-- SCF
                               energy          per atom          (sec)   <-- SCF
------------------------------------------------------------------------ <-- SCF
Initial  -3.18711408E+003  0.00000000E+000                        13.48  <-- SCF
      1  -3.18713696E+003  9.29021266E+000   1.14425161E-002      13.70  <-- SCF
      2  -3.18713696E+003  9.29021266E+000   1.13456912E-008      13.91  <-- SCF
      3  -3.18713696E+003  9.29023467E+000   1.15966382E-007      14.13  <-- SCF
      4  -3.18713696E+003  9.29022909E+000  -1.37934254E-007      14.34  <-- SCF
------------------------------------------------------------------------ <-- SCF
 
Final energy, E             =  -3187.114105517     eV
Final free energy (E-TS)    =  -3187.136963689     eV
(energies not corrected for finite basis set)
 
NB est. 0K energy (E-0.5TS)      =  -3187.125534603     eV
 
 For future reference: finite basis dEtot/dlog(Ecut) =      -0.003929eV
 Total energy corrected for finite basis set =   -3187.136966 eV

 ******************* Unconstrained Forces *******************
 *                                                          *
 *               Cartesian components (eV/A)                *
 * -------------------------------------------------------- *
 *                         x            y            z      *
 *                                                          *
 * Ti              1     -0.00000     -0.00000     -0.00000 *
 * Ti              2      0.00000      0.00000      0.00000 *
 *                                                          *
 ************************************************************

 ******************** Constrained Forces ********************
 *                                                          *
 *               Cartesian components (eV/A)                *
 * -------------------------------------------------------- *
 *                         x            y            z      *
 *                                                          *
 * Ti              1     -0.00000     -0.00000     -0.00000 *
 * Ti              2      0.00000      0.00000      0.00000 *
 *                                                          *
 ************************************************************

 ***************** Stress Tensor *****************
 *                                               *
 *          Cartesian components (GPa)           *
 * --------------------------------------------- *
 *             x             y             z     *
 *                                               *
 *  x      0.056465     -0.000001      0.000004  *
 *  y     -0.000001      0.056470     -0.000010  *
 *  z      0.000004     -0.000010      0.056479  *
 *                                               *
 *  Pressure:   -0.0565                          *
 *                                               *
 *************************************************

 Pseudo atomic calculation performed for Ti 3s2 3p6 3d2 4s2

 Converged in 31 iterations to a total energy of -1585.9998 eV

Charge spilling parameter for spin component 1 = 0.07%

     Atomic Populations (Mulliken)
     -----------------------------
Species          Ion     s      p      d      f     Total  Charge (e)
=====================================================================
  Ti              1     2.31   6.88   2.82   0.00  12.00    -0.00
  Ti              2     2.30   6.88   2.82   0.00  12.00     0.00
=====================================================================

                 Bond                   Population      Length (A)
======================================================================
              Ti 1 -- Ti 2                   0.72        2.74160
======================================================================

 
 A BibTeX formatted list of references used in this run has been written to 
 castep.bib
 
Initialisation time =      7.69 s
Calculation time    =      7.73 s
Finalisation time   =      0.03 s
Total time          =     15.45 s
Peak Memory Use     = 500220 kB
  
Overall parallel efficiency rating: Poor (49%)                                  
  
Data was distributed by:-
k-point (48-way); efficiency rating: Mediocre (50%)                             
  
Parallel notes:
1) Calculation only took 15.4 s, so efficiency estimates may be inaccurate.     
 +-------------------------------------------------+
 |                                                 |
 |      CCC   AA    SSS  TTTTT  EEEEE  PPPP        |
 |     C     A  A  S       T    E      P   P       |
 |     C     AAAA   SS     T    EEE    PPPP        |
 |     C     A  A     S    T    E      P           |
 |      CCC  A  A  SSS     T    EEEEE  P           |
 |                                                 |
 +-------------------------------------------------+
 |                                                 |
 | Welcome to Academic Release CASTEP version 17.21|          
 | Ab Initio Total Energy Program                  |
 |                                                 |
 | Authors:                                        |
 | M. Segall, M. Probert, C. Pickard, P. Hasnip,   |
 | S. Clark, K. Refson, J. R. Yates, M. Payne      |
 |                                                 |
 | Contributors:                                   |
 | P. Lindan, P. Haynes, J. White, V. Milman,      |
 | N. Govind, M. Gibson, P. Tulip, V. Cocula,      |
 | B. Montanari, D. Quigley, M. Glover,            |
 | L. Bernasconi, A. Perlov, M. Plummer,           |
 | E. McNellis, J. Meyer, J. Gale, D. Jochym       |
 | J. Aarons, B. Walker, R. Gillen, D. Jones       |
 | T. Green, I. J. Bush, C. J. Armstrong,          |
 | E. J. Higgins, E. L. Brown, M. S. McFly,        |
 | J. Wilkins, B-C. Shih, P. J. P. Byrne           |
 |                                                 |
 | Copyright (c) 2000 - 2017                       |
 |                                                 |
 |     Distributed under the terms of an           |
 |     Agreement between the United Kingdom        |
 |     Car-Parrinello (UKCP) Consortium,           |
 |     Daresbury Laboratory and Accelrys, Inc.     |
 |                                                 |
 | Please cite                                     |
 |                                                 |
 |     "First principles methods using CASTEP"     |
 |                                                 |
 |         Zeitschrift fuer Kristallographie       |
 |           220(5-6) pp. 567-570 (2005)           |
 |                                                 |
 | S. J. Clark, M. D. Segall, C. J. Pickard,       |
 | P. J. Hasnip, M. J. Probert, K. Refson,         |
 | M. C. Payne                                     |
 |                                                 |
 |       in all publications arising from          |
 |              your use of CASTEP                 |
 |                                                 |
 +-------------------------------------------------+


 Compiled for linux_x86_64_gfortran6.0-XT on Fri, 21 Jul 2017 10:20:05 +0100
 from code version 056e886bd5a1+ Castep172_branch Mon, 15 May 2017 14:45:35 +0100
 Compiler: GNU Fortran 6.3.0; Optimisation: fast
 MATHLIBS: Intel MKL(2017.0.0) (LAPACK version 3.6.0)
 FFT Lib : fftw3 version commercial-fftw-3.3.4-sse2-avx
 Fundamental constants values: CODATA 2010

 Run started: Thu, 19 Sep 2019 20:46:58 +0100

 Atomic calculation performed for Ti: 1s2 2s2 2p6 3s2 3p6 3d2 4s2

 Converged in 78 iterations to an ae energy of -23176.516 eV

   ============================================================                
   | Pseudopotential Report - Date of generation 19-09-2019   |                
   ------------------------------------------------------------                
   | Element: Ti Ionic charge: 12.00 Level of theory: LDA     |                
   | Atomic Solver: Koelling-Harmon                           |                
   |                                                          |                
   |               Reference Electronic Structure             |                
   |         Orbital         Occupation         Energy        |                
   |            3s              2.000           -2.288        |                
   |            3p              6.000           -1.425        |                
   |            4s              2.000           -0.169        |                
   |            3d              2.000           -0.164        |                
   |                                                          |                
   |                 Pseudopotential Definition               |                
   |        Beta     l      e      Rc     scheme   norm       |                
   |          1      0   -2.288   1.793     qc      0         |                
   |          2      0   -0.169   1.793     qc      0         |                
   |          3      0    0.250   1.793     qc      0         |                
   |          4      1   -1.425   1.793     qc      0         |                
   |          5      1    0.250   1.793     qc      0         |                
   |          6      2   -0.164   1.793     qc      0         |                
   |          7      2    0.250   1.793     qc      0         |                
   |         loc     3    0.000   1.793     pn      0         |                
   |                                                          |                
   | Augmentation charge Rinner = 1.263                       |                
   | Partial core correction Rc = 1.263                       |                
   ------------------------------------------------------------                
   | "3|1.8|9|10|11|30U:40:31:32(qc=5.5)"                     |                
   ------------------------------------------------------------                
   |      Author: Chris J. Pickard, Cambridge University      |                
   ============================================================                

 Pseudo atomic calculation performed for Ti 3s2 3p6 3d2 4s2

 Converged in 31 iterations to a total energy of -1585.9998 eV

 Calculation parallelised over 48 processes.
 Data is distributed by k-point(48-way)

 ************************************ Title ************************************
 

 ***************************** General Parameters ******************************
  
 output verbosity                               : normal  (1)
 write checkpoint data to                       : castep.check
 type of calculation                            : single point energy
 stress calculation                             : on
 density difference calculation                 : off
 electron localisation func (ELF) calculation   : off
 Hirshfeld analysis                             : off
 unlimited duration calculation
 timing information                             : on
 memory usage estimate                          : on
 write final potential to formatted file        : off
 write final density to formatted file          : off
 write BibTeX reference list                    : on
 write OTFG pseudopotential files               : on
 write electrostatic potential file             : on
 write bands file                               : on
 checkpoint writing                             : off
  
 output         length unit                     : A
 output           mass unit                     : amu
 output           time unit                     : ps
 output         charge unit                     : e
 output           spin unit                     : hbar/2
 output         energy unit                     : eV
 output          force unit                     : eV/A
 output       velocity unit                     : A/ps
 output       pressure unit                     : GPa
 output     inv_length unit                     : 1/A
 output      frequency unit                     : cm-1
 output force constant unit                     : eV/A**2
 output         volume unit                     : A**3
 output   IR intensity unit                     : (D/A)**2/amu
 output         dipole unit                     : D
 output         efield unit                     : eV/A/e
 output        entropy unit                     : J/mol/K
  
 wavefunctions paging                           : none
 random number generator seed                   : randomised (204658539)
 data distribution                              : optimal for this architecture
 optimization strategy                          : maximize speed(+++)

 *********************** Exchange-Correlation Parameters ***********************
  
 using functional                               : Local Density Approximation
 relativistic treatment                         : Koelling-Harmon
 DFT+D: Semi-empirical dispersion correction    : off

 ************************* Pseudopotential Parameters **************************
  
 pseudopotential representation                 : reciprocal space
 <beta|phi> representation                      : reciprocal space
 spin-orbit coupling                            : off

 **************************** Basis Set Parameters *****************************
  
 plane wave basis set cut-off                   :   600.0000   eV
 size of standard grid                          :     1.7500
 size of   fine   gmax                          :    21.9610   1/A
 finite basis set correction                    : automatic
 number of sample energies                      :          3
           sample  spacing                      :     5.0000   eV

 **************************** Electronic Parameters ****************************
  
 number of  electrons                           :  24.00    
 net charge of system                           :  0.000    
 treating system as non-spin-polarized
 number of bands                                :         16

 ********************* Electronic Minimization Parameters **********************
  
 Method: Treating system as metallic with density mixing treatment of electrons,
         and number of  SD  steps               :          1
         and number of  CG  steps               :          4
  
 total energy / atom convergence tol.           : 0.1000E-04   eV
 eigen-energy convergence tolerance             : 0.1000E-05   eV
 max force / atom convergence tol.              : ignored
 convergence tolerance window                   :          3   cycles
 max. number of SCF cycles                      :        250
 number of fixed-spin iterations                :         10
 smearing scheme                                : Gaussian
 smearing width                                 : 0.1000       eV
 Fermi energy convergence tolerance             : 0.2721E-13   eV
 periodic dipole correction                     : NONE

 ************************** Density Mixing Parameters **************************
  
 density-mixing scheme                          : Pulay
 max. length of mixing history                  :         20
 charge density mixing amplitude                : 0.8000    
 cut-off energy for mixing                      :  600.0       eV

 *********************** Population Analysis Parameters ************************
  
 Population analysis with cutoff                :  3.000       A

 *******************************************************************************
  

                           -------------------------------
                                      Unit Cell
                           -------------------------------
        Real Lattice(A)                      Reciprocal Lattice(1/A)
   3.1391270   0.0000000   0.0000000        2.0015709   0.0000000   0.0000000
   0.0000000   3.1391270   0.0000000        0.0000000   2.0015709   0.0000000
   0.0000000   0.0000000   3.1391270        0.0000000   0.0000000   2.0015709

                       Lattice parameters(A)       Cell Angles
                    a =    3.139127          alpha =   90.000000
                    b =    3.139127          beta  =   90.000000
                    c =    3.139127          gamma =   90.000000

                       Current cell volume =   30.933329       A**3
                                   density =    3.094850   AMU/A**3
                                           =    5.139118     g/cm^3

                           -------------------------------
                                     Cell Contents
                           -------------------------------
                         Total number of ions in cell =    2
                      Total number of species in cell =    1
                        Max number of any one species =    2

            xxxxxxxxxxxxxxxxxxxxxxxxxxxxxxxxxxxxxxxxxxxxxxxxxxxxxxxxxxxx
            x  Element    Atom        Fractional coordinates of atoms  x
            x            Number           u          v          w      x
            x----------------------------------------------------------x
            x  Ti           1         0.000000   0.000000   0.000000   x 
            x  Ti           2         0.500000   0.500000   0.500000   x 
            xxxxxxxxxxxxxxxxxxxxxxxxxxxxxxxxxxxxxxxxxxxxxxxxxxxxxxxxxxxx


                         No user defined ionic velocities

                           -------------------------------
                                   Details of Species
                           -------------------------------

                               Mass of species in AMU
                                    Ti   47.8670000

                          Electric Quadrupole Moment (Barn)
                                    Ti    0.3020000 Isotope 47

                          Files used for pseudopotentials:
                                    Ti 3|1.8|9|10|11|30U:40:31:32(qc=5.5)

                           -------------------------------
                              k-Points For BZ Sampling
                           -------------------------------
                       MP grid size for SCF calculation is  8  8  8
                            with an offset of   0.000  0.000  0.000
                       Number of kpoints used =           256

                           -------------------------------
                               Symmetry and Constraints
                           -------------------------------

                      Cell is a supercell containing 2 primitive cells
                      Maximum deviation from symmetry =  0.00000         ANG

                      Number of symmetry operations   =           1
                      Number of ionic constraints     =           3
                      Point group of crystal =     1: C1, 1, 1
                      Space group of crystal =   229: Im-3m, -I 4 2 3

             Set iprint > 1 for details on symmetry rotations/translations

                         Centre of mass is constrained
             Set iprint > 1 for details of linear ionic constraints

                         Number of cell constraints= 0
                         Cell constraints are:  1 2 3 4 5 6

                         External pressure/stress (GPa)
                          0.00000   0.00000   0.00000
                                    0.00000   0.00000
                                              0.00000
  
+---------------- MEMORY AND SCRATCH DISK ESTIMATES PER PROCESS --------------+
|                                                     Memory          Disk    |
| Baseline code, static data and system overhead      172.0 MB         0.0 MB |
| BLAS internal memory storage                          0.0 MB         0.0 MB |
| Model and support data                               44.1 MB         0.0 MB |
| Electronic energy minimisation requirements           7.8 MB         0.0 MB |
| Force calculation requirements                        2.0 MB         0.0 MB |
| Stress calculation requirements                       2.2 MB         0.0 MB |
|                                               ----------------------------- |
| Approx. total storage required per process          223.9 MB         0.0 MB |
|                                                                             |
| Requirements will fluctuate during execution and may exceed these estimates |
+-----------------------------------------------------------------------------+
Calculating finite basis set correction with  3 cut-off energies.
Calculating total energy with cut-off of  590.000 eV.
------------------------------------------------------------------------ <-- SCF
SCF loop      Energy           Fermi           Energy gain       Timer   <-- SCF
                               energy          per atom          (sec)   <-- SCF
------------------------------------------------------------------------ <-- SCF
Initial  -2.89987942E+003  0.00000000E+000                         9.05  <-- SCF
      1  -3.13558748E+003  1.16584329E+001   1.17854028E+002       9.39  <-- SCF
      2  -3.18683927E+003  1.00098834E+001   2.56258962E+001       9.66  <-- SCF
      3  -3.18736540E+003  9.97610433E+000   2.63066291E-001       9.96  <-- SCF
      4  -3.18722214E+003  9.37609646E+000  -7.16323938E-002      10.29  <-- SCF
      5  -3.18712935E+003  9.60627457E+000  -4.63944699E-002      10.64  <-- SCF
      6  -3.18712977E+003  9.59734167E+000   2.08022865E-004      11.05  <-- SCF
      7  -3.18712968E+003  9.59684672E+000  -4.43767617E-005      11.36  <-- SCF
      8  -3.18712967E+003  9.59484855E+000  -3.20135845E-006      11.58  <-- SCF
      9  -3.18712967E+003  9.59500871E+000   1.89754364E-007      11.80  <-- SCF
------------------------------------------------------------------------ <-- SCF
 
Final energy, E             =  -3187.108916102     eV
Final free energy (E-TS)    =  -3187.129671926     eV
(energies not corrected for finite basis set)
 
NB est. 0K energy (E-0.5TS)      =  -3187.119294014     eV
 
Calculating total energy with cut-off of  595.000 eV.
------------------------------------------------------------------------ <-- SCF
SCF loop      Energy           Fermi           Energy gain       Timer   <-- SCF
                               energy          per atom          (sec)   <-- SCF
------------------------------------------------------------------------ <-- SCF
Initial  -3.18710892E+003  0.00000000E+000                        11.95  <-- SCF
      1  -3.18712971E+003  9.59511670E+000   1.03959842E-002      12.16  <-- SCF
      2  -3.18712971E+003  9.59511669E+000   2.86325956E-008      12.37  <-- SCF
      3  -3.18712971E+003  9.59522137E+000   3.68578350E-008      12.58  <-- SCF
      4  -3.18712971E+003  9.59520610E+000  -3.64813855E-008      12.79  <-- SCF
------------------------------------------------------------------------ <-- SCF
 
Final energy, E             =  -3187.108948951     eV
Final free energy (E-TS)    =  -3187.129708117     eV
(energies not corrected for finite basis set)
 
NB est. 0K energy (E-0.5TS)      =  -3187.119328534     eV
 
Calculating total energy with cut-off of  600.000 eV.
------------------------------------------------------------------------ <-- SCF
SCF loop      Energy           Fermi           Energy gain       Timer   <-- SCF
                               energy          per atom          (sec)   <-- SCF
------------------------------------------------------------------------ <-- SCF
Initial  -3.18710895E+003  0.00000000E+000                        12.93  <-- SCF
      1  -3.18712974E+003  9.59516457E+000   1.03930771E-002      13.15  <-- SCF
      2  -3.18712974E+003  9.59516457E+000   6.71170718E-009      13.37  <-- SCF
      3  -3.18712974E+003  9.59520986E+000   1.05861988E-007      13.58  <-- SCF
      4  -3.18712974E+003  9.59520093E+000  -1.25314396E-007      13.80  <-- SCF
------------------------------------------------------------------------ <-- SCF
 
Final energy, E             =  -3187.108976009     eV
Final free energy (E-TS)    =  -3187.129735073     eV
(energies not corrected for finite basis set)
 
NB est. 0K energy (E-0.5TS)      =  -3187.119355541     eV
 
 For future reference: finite basis dEtot/dlog(Ecut) =      -0.003780eV
 Total energy corrected for finite basis set =   -3187.129734 eV

 ******************* Unconstrained Forces *******************
 *                                                          *
 *               Cartesian components (eV/A)                *
 * -------------------------------------------------------- *
 *                         x            y            z      *
 *                                                          *
 * Ti              1     -0.00000     -0.00000     -0.00000 *
 * Ti              2      0.00000      0.00000      0.00000 *
 *                                                          *
 ************************************************************

 ******************** Constrained Forces ********************
 *                                                          *
 *               Cartesian components (eV/A)                *
 * -------------------------------------------------------- *
 *                         x            y            z      *
 *                                                          *
 * Ti              1     -0.00000     -0.00000     -0.00000 *
 * Ti              2      0.00000      0.00000      0.00000 *
 *                                                          *
 ************************************************************

 ***************** Stress Tensor *****************
 *                                               *
 *          Cartesian components (GPa)           *
 * --------------------------------------------- *
 *             x             y             z     *
 *                                               *
 *  x     -3.027660     -0.000004     -0.000001  *
 *  y     -0.000004     -3.027662     -0.000006  *
 *  z     -0.000001     -0.000006     -3.027672  *
 *                                               *
 *  Pressure:    3.0277                          *
 *                                               *
 *************************************************

 Pseudo atomic calculation performed for Ti 3s2 3p6 3d2 4s2

 Converged in 31 iterations to a total energy of -1585.9998 eV

Charge spilling parameter for spin component 1 = 0.07%

     Atomic Populations (Mulliken)
     -----------------------------
Species          Ion     s      p      d      f     Total  Charge (e)
=====================================================================
  Ti              1     2.29   6.87   2.84   0.00  12.00     0.00
  Ti              2     2.29   6.87   2.84   0.00  12.00    -0.00
=====================================================================

                 Bond                   Population      Length (A)
======================================================================
              Ti 1 -- Ti 2                   0.56        2.71856
======================================================================

 
 A BibTeX formatted list of references used in this run has been written to 
 castep.bib
 
Initialisation time =      7.24 s
Calculation time    =      7.64 s
Finalisation time   =      0.04 s
Total time          =     14.91 s
Peak Memory Use     = 482248 kB
  
Overall parallel efficiency rating: Mediocre (51%)                              
  
Data was distributed by:-
k-point (48-way); efficiency rating: Mediocre (51%)                             
  
Parallel notes:
1) Calculation only took 14.9 s, so efficiency estimates may be inaccurate.     
 +-------------------------------------------------+
 |                                                 |
 |      CCC   AA    SSS  TTTTT  EEEEE  PPPP        |
 |     C     A  A  S       T    E      P   P       |
 |     C     AAAA   SS     T    EEE    PPPP        |
 |     C     A  A     S    T    E      P           |
 |      CCC  A  A  SSS     T    EEEEE  P           |
 |                                                 |
 +-------------------------------------------------+
 |                                                 |
 | Welcome to Academic Release CASTEP version 17.21|          
 | Ab Initio Total Energy Program                  |
 |                                                 |
 | Authors:                                        |
 | M. Segall, M. Probert, C. Pickard, P. Hasnip,   |
 | S. Clark, K. Refson, J. R. Yates, M. Payne      |
 |                                                 |
 | Contributors:                                   |
 | P. Lindan, P. Haynes, J. White, V. Milman,      |
 | N. Govind, M. Gibson, P. Tulip, V. Cocula,      |
 | B. Montanari, D. Quigley, M. Glover,            |
 | L. Bernasconi, A. Perlov, M. Plummer,           |
 | E. McNellis, J. Meyer, J. Gale, D. Jochym       |
 | J. Aarons, B. Walker, R. Gillen, D. Jones       |
 | T. Green, I. J. Bush, C. J. Armstrong,          |
 | E. J. Higgins, E. L. Brown, M. S. McFly,        |
 | J. Wilkins, B-C. Shih, P. J. P. Byrne           |
 |                                                 |
 | Copyright (c) 2000 - 2017                       |
 |                                                 |
 |     Distributed under the terms of an           |
 |     Agreement between the United Kingdom        |
 |     Car-Parrinello (UKCP) Consortium,           |
 |     Daresbury Laboratory and Accelrys, Inc.     |
 |                                                 |
 | Please cite                                     |
 |                                                 |
 |     "First principles methods using CASTEP"     |
 |                                                 |
 |         Zeitschrift fuer Kristallographie       |
 |           220(5-6) pp. 567-570 (2005)           |
 |                                                 |
 | S. J. Clark, M. D. Segall, C. J. Pickard,       |
 | P. J. Hasnip, M. J. Probert, K. Refson,         |
 | M. C. Payne                                     |
 |                                                 |
 |       in all publications arising from          |
 |              your use of CASTEP                 |
 |                                                 |
 +-------------------------------------------------+


 Compiled for linux_x86_64_gfortran6.0-XT on Fri, 21 Jul 2017 10:20:05 +0100
 from code version 056e886bd5a1+ Castep172_branch Mon, 15 May 2017 14:45:35 +0100
 Compiler: GNU Fortran 6.3.0; Optimisation: fast
 MATHLIBS: Intel MKL(2017.0.0) (LAPACK version 3.6.0)
 FFT Lib : fftw3 version commercial-fftw-3.3.4-sse2-avx
 Fundamental constants values: CODATA 2010

 Run started: Thu, 19 Sep 2019 20:47:19 +0100

 Atomic calculation performed for Ti: 1s2 2s2 2p6 3s2 3p6 3d2 4s2

 Converged in 78 iterations to an ae energy of -23176.516 eV

   ============================================================                
   | Pseudopotential Report - Date of generation 19-09-2019   |                
   ------------------------------------------------------------                
   | Element: Ti Ionic charge: 12.00 Level of theory: LDA     |                
   | Atomic Solver: Koelling-Harmon                           |                
   |                                                          |                
   |               Reference Electronic Structure             |                
   |         Orbital         Occupation         Energy        |                
   |            3s              2.000           -2.288        |                
   |            3p              6.000           -1.425        |                
   |            4s              2.000           -0.169        |                
   |            3d              2.000           -0.164        |                
   |                                                          |                
   |                 Pseudopotential Definition               |                
   |        Beta     l      e      Rc     scheme   norm       |                
   |          1      0   -2.288   1.793     qc      0         |                
   |          2      0   -0.169   1.793     qc      0         |                
   |          3      0    0.250   1.793     qc      0         |                
   |          4      1   -1.425   1.793     qc      0         |                
   |          5      1    0.250   1.793     qc      0         |                
   |          6      2   -0.164   1.793     qc      0         |                
   |          7      2    0.250   1.793     qc      0         |                
   |         loc     3    0.000   1.793     pn      0         |                
   |                                                          |                
   | Augmentation charge Rinner = 1.263                       |                
   | Partial core correction Rc = 1.263                       |                
   ------------------------------------------------------------                
   | "3|1.8|9|10|11|30U:40:31:32(qc=5.5)"                     |                
   ------------------------------------------------------------                
   |      Author: Chris J. Pickard, Cambridge University      |                
   ============================================================                

 Pseudo atomic calculation performed for Ti 3s2 3p6 3d2 4s2

 Converged in 31 iterations to a total energy of -1585.9998 eV

 Calculation parallelised over 48 processes.
 Data is distributed by k-point(48-way)

 ************************************ Title ************************************
 

 ***************************** General Parameters ******************************
  
 output verbosity                               : normal  (1)
 write checkpoint data to                       : castep.check
 type of calculation                            : single point energy
 stress calculation                             : on
 density difference calculation                 : off
 electron localisation func (ELF) calculation   : off
 Hirshfeld analysis                             : off
 unlimited duration calculation
 timing information                             : on
 memory usage estimate                          : on
 write final potential to formatted file        : off
 write final density to formatted file          : off
 write BibTeX reference list                    : on
 write OTFG pseudopotential files               : on
 write electrostatic potential file             : on
 write bands file                               : on
 checkpoint writing                             : off
  
 output         length unit                     : A
 output           mass unit                     : amu
 output           time unit                     : ps
 output         charge unit                     : e
 output           spin unit                     : hbar/2
 output         energy unit                     : eV
 output          force unit                     : eV/A
 output       velocity unit                     : A/ps
 output       pressure unit                     : GPa
 output     inv_length unit                     : 1/A
 output      frequency unit                     : cm-1
 output force constant unit                     : eV/A**2
 output         volume unit                     : A**3
 output   IR intensity unit                     : (D/A)**2/amu
 output         dipole unit                     : D
 output         efield unit                     : eV/A/e
 output        entropy unit                     : J/mol/K
  
 wavefunctions paging                           : none
 random number generator seed                   : randomised (204719779)
 data distribution                              : optimal for this architecture
 optimization strategy                          : maximize speed(+++)

 *********************** Exchange-Correlation Parameters ***********************
  
 using functional                               : Local Density Approximation
 relativistic treatment                         : Koelling-Harmon
 DFT+D: Semi-empirical dispersion correction    : off

 ************************* Pseudopotential Parameters **************************
  
 pseudopotential representation                 : reciprocal space
 <beta|phi> representation                      : reciprocal space
 spin-orbit coupling                            : off

 **************************** Basis Set Parameters *****************************
  
 plane wave basis set cut-off                   :   600.0000   eV
 size of standard grid                          :     1.7500
 size of   fine   gmax                          :    21.9610   1/A
 finite basis set correction                    : automatic
 number of sample energies                      :          3
           sample  spacing                      :     5.0000   eV

 **************************** Electronic Parameters ****************************
  
 number of  electrons                           :  24.00    
 net charge of system                           :  0.000    
 treating system as non-spin-polarized
 number of bands                                :         16

 ********************* Electronic Minimization Parameters **********************
  
 Method: Treating system as metallic with density mixing treatment of electrons,
         and number of  SD  steps               :          1
         and number of  CG  steps               :          4
  
 total energy / atom convergence tol.           : 0.1000E-04   eV
 eigen-energy convergence tolerance             : 0.1000E-05   eV
 max force / atom convergence tol.              : ignored
 convergence tolerance window                   :          3   cycles
 max. number of SCF cycles                      :        250
 number of fixed-spin iterations                :         10
 smearing scheme                                : Gaussian
 smearing width                                 : 0.1000       eV
 Fermi energy convergence tolerance             : 0.2721E-13   eV
 periodic dipole correction                     : NONE

 ************************** Density Mixing Parameters **************************
  
 density-mixing scheme                          : Pulay
 max. length of mixing history                  :         20
 charge density mixing amplitude                : 0.8000    
 cut-off energy for mixing                      :  600.0       eV

 *********************** Population Analysis Parameters ************************
  
 Population analysis with cutoff                :  3.000       A

 *******************************************************************************
  

                           -------------------------------
                                      Unit Cell
                           -------------------------------
        Real Lattice(A)                      Reciprocal Lattice(1/A)
   3.1120640   0.0000000   0.0000000        2.0189769   0.0000000   0.0000000
   0.0000000   3.1120640   0.0000000        0.0000000   2.0189769   0.0000000
   0.0000000   0.0000000   3.1120640        0.0000000   0.0000000   2.0189769

                       Lattice parameters(A)       Cell Angles
                    a =    3.112064          alpha =   90.000000
                    b =    3.112064          beta  =   90.000000
                    c =    3.112064          gamma =   90.000000

                       Current cell volume =   30.140160       A**3
                                   density =    3.176294   AMU/A**3
                                           =    5.274359     g/cm^3

                           -------------------------------
                                     Cell Contents
                           -------------------------------
                         Total number of ions in cell =    2
                      Total number of species in cell =    1
                        Max number of any one species =    2

            xxxxxxxxxxxxxxxxxxxxxxxxxxxxxxxxxxxxxxxxxxxxxxxxxxxxxxxxxxxx
            x  Element    Atom        Fractional coordinates of atoms  x
            x            Number           u          v          w      x
            x----------------------------------------------------------x
            x  Ti           1         0.000000   0.000000   0.000000   x 
            x  Ti           2         0.500000   0.500000   0.500000   x 
            xxxxxxxxxxxxxxxxxxxxxxxxxxxxxxxxxxxxxxxxxxxxxxxxxxxxxxxxxxxx


                         No user defined ionic velocities

                           -------------------------------
                                   Details of Species
                           -------------------------------

                               Mass of species in AMU
                                    Ti   47.8670000

                          Electric Quadrupole Moment (Barn)
                                    Ti    0.3020000 Isotope 47

                          Files used for pseudopotentials:
                                    Ti 3|1.8|9|10|11|30U:40:31:32(qc=5.5)

                           -------------------------------
                              k-Points For BZ Sampling
                           -------------------------------
                       MP grid size for SCF calculation is  9  9  9
                            with an offset of   0.000  0.000  0.000
                       Number of kpoints used =           365

                           -------------------------------
                               Symmetry and Constraints
                           -------------------------------

                      Cell is a supercell containing 2 primitive cells
                      Maximum deviation from symmetry =  0.00000         ANG

                      Number of symmetry operations   =           1
                      Number of ionic constraints     =           3
                      Point group of crystal =     1: C1, 1, 1
                      Space group of crystal =   229: Im-3m, -I 4 2 3

             Set iprint > 1 for details on symmetry rotations/translations

                         Centre of mass is constrained
             Set iprint > 1 for details of linear ionic constraints

                         Number of cell constraints= 0
                         Cell constraints are:  1 2 3 4 5 6

                         External pressure/stress (GPa)
                          0.00000   0.00000   0.00000
                                    0.00000   0.00000
                                              0.00000
  
+---------------- MEMORY AND SCRATCH DISK ESTIMATES PER PROCESS --------------+
|                                                     Memory          Disk    |
| Baseline code, static data and system overhead      184.0 MB         0.0 MB |
| BLAS internal memory storage                          0.0 MB         0.0 MB |
| Model and support data                               44.9 MB         0.0 MB |
| Electronic energy minimisation requirements           8.7 MB         0.0 MB |
| Force calculation requirements                        2.0 MB         0.0 MB |
| Stress calculation requirements                       2.2 MB         0.0 MB |
|                                               ----------------------------- |
| Approx. total storage required per process          237.6 MB         0.0 MB |
|                                                                             |
| Requirements will fluctuate during execution and may exceed these estimates |
+-----------------------------------------------------------------------------+
Calculating finite basis set correction with  3 cut-off energies.
Calculating total energy with cut-off of  590.000 eV.
------------------------------------------------------------------------ <-- SCF
SCF loop      Energy           Fermi           Energy gain       Timer   <-- SCF
                               energy          per atom          (sec)   <-- SCF
------------------------------------------------------------------------ <-- SCF
Initial  -2.89966845E+003  0.00000000E+000                         9.02  <-- SCF
      1  -3.13461755E+003  1.20283769E+001   1.17474551E+002       9.47  <-- SCF
      2  -3.18682973E+003  1.03270673E+001   2.61060889E+001       9.83  <-- SCF
      3  -3.18733950E+003  1.02975474E+001   2.54888169E-001      10.21  <-- SCF
      4  -3.18719056E+003  9.68764121E+000  -7.44728003E-002      10.63  <-- SCF
      5  -3.18710764E+003  9.91713550E+000  -4.14575410E-002      11.08  <-- SCF
      6  -3.18710795E+003  9.90494646E+000   1.55705896E-004      11.60  <-- SCF
      7  -3.18710779E+003  9.90457274E+000  -8.31947311E-005      11.99  <-- SCF
      8  -3.18710778E+003  9.90353279E+000  -1.57041941E-006      12.27  <-- SCF
      9  -3.18710778E+003  9.90343935E+000   1.52148077E-007      12.55  <-- SCF
------------------------------------------------------------------------ <-- SCF
 
Final energy, E             =  -3187.089231309     eV
Final free energy (E-TS)    =  -3187.107784619     eV
(energies not corrected for finite basis set)
 
NB est. 0K energy (E-0.5TS)      =  -3187.098507964     eV
 
Calculating total energy with cut-off of  595.000 eV.
------------------------------------------------------------------------ <-- SCF
SCF loop      Energy           Fermi           Energy gain       Timer   <-- SCF
                               energy          per atom          (sec)   <-- SCF
------------------------------------------------------------------------ <-- SCF
Initial  -3.18708923E+003  0.00000000E+000                        12.71  <-- SCF
      1  -3.18710782E+003  9.90354250E+000   9.29379077E-003      12.99  <-- SCF
      2  -3.18710782E+003  9.90354249E+000   2.03588258E-008      13.27  <-- SCF
      3  -3.18710782E+003  9.90358045E+000   1.95036839E-007      13.55  <-- SCF
      4  -3.18710782E+003  9.90357464E+000  -2.13980161E-007      13.82  <-- SCF
------------------------------------------------------------------------ <-- SCF
 
Final energy, E             =  -3187.089265071     eV
Final free energy (E-TS)    =  -3187.107818873     eV
(energies not corrected for finite basis set)
 
NB est. 0K energy (E-0.5TS)      =  -3187.098541972     eV
 
Calculating total energy with cut-off of  600.000 eV.
------------------------------------------------------------------------ <-- SCF
SCF loop      Energy           Fermi           Energy gain       Timer   <-- SCF
                               energy          per atom          (sec)   <-- SCF
------------------------------------------------------------------------ <-- SCF
Initial  -3.18708926E+003  0.00000000E+000                        13.98  <-- SCF
      1  -3.18710785E+003  9.90355880E+000   9.29365991E-003      14.26  <-- SCF
      2  -3.18710785E+003  9.90355878E+000   6.45894266E-008      14.53  <-- SCF
      3  -3.18710786E+003  9.90357632E+000   5.09984255E-006      14.85  <-- SCF
      4  -3.18710785E+003  9.90357588E+000  -6.02246495E-006      15.15  <-- SCF
------------------------------------------------------------------------ <-- SCF
 
Final energy, E             =  -3187.089296938     eV
Final free energy (E-TS)    =  -3187.107850545     eV
(energies not corrected for finite basis set)
 
NB est. 0K energy (E-0.5TS)      =  -3187.098573742     eV
 
 For future reference: finite basis dEtot/dlog(Ecut) =      -0.003977eV
 Total energy corrected for finite basis set =   -3187.107851 eV

 ******************* Unconstrained Forces *******************
 *                                                          *
 *               Cartesian components (eV/A)                *
 * -------------------------------------------------------- *
 *                         x            y            z      *
 *                                                          *
 * Ti              1      0.00000      0.00000      0.00000 *
 * Ti              2     -0.00000     -0.00000     -0.00000 *
 *                                                          *
 ************************************************************

 ******************** Constrained Forces ********************
 *                                                          *
 *               Cartesian components (eV/A)                *
 * -------------------------------------------------------- *
 *                         x            y            z      *
 *                                                          *
 * Ti              1      0.00000      0.00000      0.00000 *
 * Ti              2     -0.00000     -0.00000     -0.00000 *
 *                                                          *
 ************************************************************

 ***************** Stress Tensor *****************
 *                                               *
 *          Cartesian components (GPa)           *
 * --------------------------------------------- *
 *             x             y             z     *
 *                                               *
 *  x     -6.802813      0.000020      0.000020  *
 *  y      0.000020     -6.802756     -0.000000  *
 *  z      0.000020     -0.000000     -6.802798  *
 *                                               *
 *  Pressure:    6.8028                          *
 *                                               *
 *************************************************

 Pseudo atomic calculation performed for Ti 3s2 3p6 3d2 4s2

 Converged in 31 iterations to a total energy of -1585.9998 eV

Charge spilling parameter for spin component 1 = 0.07%

     Atomic Populations (Mulliken)
     -----------------------------
Species          Ion     s      p      d      f     Total  Charge (e)
=====================================================================
  Ti              1     2.28   6.87   2.85   0.00  12.00    -0.00
  Ti              2     2.28   6.87   2.85   0.00  12.00     0.00
=====================================================================

                 Bond                   Population      Length (A)
======================================================================
              Ti 1 -- Ti 2                   0.40        2.69513
======================================================================

 
 A BibTeX formatted list of references used in this run has been written to 
 castep.bib
 
Initialisation time =      7.19 s
Calculation time    =      9.09 s
Finalisation time   =      0.02 s
Total time          =     16.30 s
Peak Memory Use     = 489156 kB
  
Overall parallel efficiency rating: Mediocre (54%)                              
  
Data was distributed by:-
k-point (48-way); efficiency rating: Mediocre (55%)                             
  
Parallel notes:
1) Calculation only took 16.3 s, so efficiency estimates may be inaccurate.     
 +-------------------------------------------------+
 |                                                 |
 |      CCC   AA    SSS  TTTTT  EEEEE  PPPP        |
 |     C     A  A  S       T    E      P   P       |
 |     C     AAAA   SS     T    EEE    PPPP        |
 |     C     A  A     S    T    E      P           |
 |      CCC  A  A  SSS     T    EEEEE  P           |
 |                                                 |
 +-------------------------------------------------+
 |                                                 |
 | Welcome to Academic Release CASTEP version 17.21|          
 | Ab Initio Total Energy Program                  |
 |                                                 |
 | Authors:                                        |
 | M. Segall, M. Probert, C. Pickard, P. Hasnip,   |
 | S. Clark, K. Refson, J. R. Yates, M. Payne      |
 |                                                 |
 | Contributors:                                   |
 | P. Lindan, P. Haynes, J. White, V. Milman,      |
 | N. Govind, M. Gibson, P. Tulip, V. Cocula,      |
 | B. Montanari, D. Quigley, M. Glover,            |
 | L. Bernasconi, A. Perlov, M. Plummer,           |
 | E. McNellis, J. Meyer, J. Gale, D. Jochym       |
 | J. Aarons, B. Walker, R. Gillen, D. Jones       |
 | T. Green, I. J. Bush, C. J. Armstrong,          |
 | E. J. Higgins, E. L. Brown, M. S. McFly,        |
 | J. Wilkins, B-C. Shih, P. J. P. Byrne           |
 |                                                 |
 | Copyright (c) 2000 - 2017                       |
 |                                                 |
 |     Distributed under the terms of an           |
 |     Agreement between the United Kingdom        |
 |     Car-Parrinello (UKCP) Consortium,           |
 |     Daresbury Laboratory and Accelrys, Inc.     |
 |                                                 |
 | Please cite                                     |
 |                                                 |
 |     "First principles methods using CASTEP"     |
 |                                                 |
 |         Zeitschrift fuer Kristallographie       |
 |           220(5-6) pp. 567-570 (2005)           |
 |                                                 |
 | S. J. Clark, M. D. Segall, C. J. Pickard,       |
 | P. J. Hasnip, M. J. Probert, K. Refson,         |
 | M. C. Payne                                     |
 |                                                 |
 |       in all publications arising from          |
 |              your use of CASTEP                 |
 |                                                 |
 +-------------------------------------------------+


 Compiled for linux_x86_64_gfortran6.0-XT on Fri, 21 Jul 2017 10:20:05 +0100
 from code version 056e886bd5a1+ Castep172_branch Mon, 15 May 2017 14:45:35 +0100
 Compiler: GNU Fortran 6.3.0; Optimisation: fast
 MATHLIBS: Intel MKL(2017.0.0) (LAPACK version 3.6.0)
 FFT Lib : fftw3 version commercial-fftw-3.3.4-sse2-avx
 Fundamental constants values: CODATA 2010

 Run started: Thu, 19 Sep 2019 20:47:42 +0100

 Atomic calculation performed for Ti: 1s2 2s2 2p6 3s2 3p6 3d2 4s2

 Converged in 78 iterations to an ae energy of -23176.516 eV

   ============================================================                
   | Pseudopotential Report - Date of generation 19-09-2019   |                
   ------------------------------------------------------------                
   | Element: Ti Ionic charge: 12.00 Level of theory: LDA     |                
   | Atomic Solver: Koelling-Harmon                           |                
   |                                                          |                
   |               Reference Electronic Structure             |                
   |         Orbital         Occupation         Energy        |                
   |            3s              2.000           -2.288        |                
   |            3p              6.000           -1.425        |                
   |            4s              2.000           -0.169        |                
   |            3d              2.000           -0.164        |                
   |                                                          |                
   |                 Pseudopotential Definition               |                
   |        Beta     l      e      Rc     scheme   norm       |                
   |          1      0   -2.288   1.793     qc      0         |                
   |          2      0   -0.169   1.793     qc      0         |                
   |          3      0    0.250   1.793     qc      0         |                
   |          4      1   -1.425   1.793     qc      0         |                
   |          5      1    0.250   1.793     qc      0         |                
   |          6      2   -0.164   1.793     qc      0         |                
   |          7      2    0.250   1.793     qc      0         |                
   |         loc     3    0.000   1.793     pn      0         |                
   |                                                          |                
   | Augmentation charge Rinner = 1.263                       |                
   | Partial core correction Rc = 1.263                       |                
   ------------------------------------------------------------                
   | "3|1.8|9|10|11|30U:40:31:32(qc=5.5)"                     |                
   ------------------------------------------------------------                
   |      Author: Chris J. Pickard, Cambridge University      |                
   ============================================================                

 Pseudo atomic calculation performed for Ti 3s2 3p6 3d2 4s2

 Converged in 31 iterations to a total energy of -1585.9998 eV

 Calculation parallelised over 48 processes.
 Data is distributed by k-point(48-way)

 ************************************ Title ************************************
 

 ***************************** General Parameters ******************************
  
 output verbosity                               : normal  (1)
 write checkpoint data to                       : castep.check
 type of calculation                            : single point energy
 stress calculation                             : on
 density difference calculation                 : off
 electron localisation func (ELF) calculation   : off
 Hirshfeld analysis                             : off
 unlimited duration calculation
 timing information                             : on
 memory usage estimate                          : on
 write final potential to formatted file        : off
 write final density to formatted file          : off
 write BibTeX reference list                    : on
 write OTFG pseudopotential files               : on
 write electrostatic potential file             : on
 write bands file                               : on
 checkpoint writing                             : off
  
 output         length unit                     : A
 output           mass unit                     : amu
 output           time unit                     : ps
 output         charge unit                     : e
 output           spin unit                     : hbar/2
 output         energy unit                     : eV
 output          force unit                     : eV/A
 output       velocity unit                     : A/ps
 output       pressure unit                     : GPa
 output     inv_length unit                     : 1/A
 output      frequency unit                     : cm-1
 output force constant unit                     : eV/A**2
 output         volume unit                     : A**3
 output   IR intensity unit                     : (D/A)**2/amu
 output         dipole unit                     : D
 output         efield unit                     : eV/A/e
 output        entropy unit                     : J/mol/K
  
 wavefunctions paging                           : none
 random number generator seed                   : randomised (204742381)
 data distribution                              : optimal for this architecture
 optimization strategy                          : maximize speed(+++)

 *********************** Exchange-Correlation Parameters ***********************
  
 using functional                               : Local Density Approximation
 relativistic treatment                         : Koelling-Harmon
 DFT+D: Semi-empirical dispersion correction    : off

 ************************* Pseudopotential Parameters **************************
  
 pseudopotential representation                 : reciprocal space
 <beta|phi> representation                      : reciprocal space
 spin-orbit coupling                            : off

 **************************** Basis Set Parameters *****************************
  
 plane wave basis set cut-off                   :   600.0000   eV
 size of standard grid                          :     1.7500
 size of   fine   gmax                          :    21.9610   1/A
 finite basis set correction                    : automatic
 number of sample energies                      :          3
           sample  spacing                      :     5.0000   eV

 **************************** Electronic Parameters ****************************
  
 number of  electrons                           :  24.00    
 net charge of system                           :  0.000    
 treating system as non-spin-polarized
 number of bands                                :         16

 ********************* Electronic Minimization Parameters **********************
  
 Method: Treating system as metallic with density mixing treatment of electrons,
         and number of  SD  steps               :          1
         and number of  CG  steps               :          4
  
 total energy / atom convergence tol.           : 0.1000E-04   eV
 eigen-energy convergence tolerance             : 0.1000E-05   eV
 max force / atom convergence tol.              : ignored
 convergence tolerance window                   :          3   cycles
 max. number of SCF cycles                      :        250
 number of fixed-spin iterations                :         10
 smearing scheme                                : Gaussian
 smearing width                                 : 0.1000       eV
 Fermi energy convergence tolerance             : 0.2721E-13   eV
 periodic dipole correction                     : NONE

 ************************** Density Mixing Parameters **************************
  
[...]
   ------------------------------------------------------------                
   | Element: Ti Ionic charge: 12.00 Level of theory: LDA     |                
   | Atomic Solver: Koelling-Harmon                           |                
   |                                                          |                
   |               Reference Electronic Structure             |                
   |         Orbital         Occupation         Energy        |                
   |            3s              2.000           -2.288        |                
   |            3p              6.000           -1.425        |                
   |            4s              2.000           -0.169        |                
   |            3d              2.000           -0.164        |                
   |                                                          |                
   |                 Pseudopotential Definition               |                
   |        Beta     l      e      Rc     scheme   norm       |                
   |          1      0   -2.288   1.793     qc      0         |                
   |          2      0   -0.169   1.793     qc      0         |                
   |          3      0    0.250   1.793     qc      0         |                
   |          4      1   -1.425   1.793     qc      0         |                
   |          5      1    0.250   1.793     qc      0         |                
   |          6      2   -0.164   1.793     qc      0         |                
   |          7      2    0.250   1.793     qc      0         |                
   |         loc     3    0.000   1.793     pn      0         |                
   |                                                          |                
   | Augmentation charge Rinner = 1.263                       |                
   | Partial core correction Rc = 1.263                       |                
   ------------------------------------------------------------                
   | "3|1.8|9|10|11|30U:40:31:32(qc=5.5)"                     |                
   ------------------------------------------------------------                
   |      Author: Chris J. Pickard, Cambridge University      |                
   ============================================================                

 Pseudo atomic calculation performed for Ti 3s2 3p6 3d2 4s2

 Converged in 31 iterations to a total energy of -1585.9998 eV

 Calculation parallelised over 48 processes.
 Data is distributed by k-point(48-way)

 ************************************ Title ************************************
 

 ***************************** General Parameters ******************************
  
 output verbosity                               : normal  (1)
 write checkpoint data to                       : castep.check
 type of calculation                            : single point energy
 stress calculation                             : on
 density difference calculation                 : off
 electron localisation func (ELF) calculation   : off
 Hirshfeld analysis                             : off
 unlimited duration calculation
 timing information                             : on
 memory usage estimate                          : on
 write final potential to formatted file        : off
 write final density to formatted file          : off
 write BibTeX reference list                    : on
 write OTFG pseudopotential files               : on
 write electrostatic potential file             : on
 write bands file                               : on
 checkpoint writing                             : off
  
 output         length unit                     : A
 output           mass unit                     : amu
 output           time unit                     : ps
 output         charge unit                     : e
 output           spin unit                     : hbar/2
 output         energy unit                     : eV
 output          force unit                     : eV/A
 output       velocity unit                     : A/ps
 output       pressure unit                     : GPa
 output     inv_length unit                     : 1/A
 output      frequency unit                     : cm-1
 output force constant unit                     : eV/A**2
 output         volume unit                     : A**3
 output   IR intensity unit                     : (D/A)**2/amu
 output         dipole unit                     : D
 output         efield unit                     : eV/A/e
 output        entropy unit                     : J/mol/K
  
 wavefunctions paging                           : none
 random number generator seed                   : randomised (205558369)
 data distribution                              : optimal for this architecture
 optimization strategy                          : maximize speed(+++)

 *********************** Exchange-Correlation Parameters ***********************
  
 using functional                               : Local Density Approximation
 relativistic treatment                         : Koelling-Harmon
 DFT+D: Semi-empirical dispersion correction    : off

 ************************* Pseudopotential Parameters **************************
  
 pseudopotential representation                 : reciprocal space
 <beta|phi> representation                      : reciprocal space
 spin-orbit coupling                            : off

 **************************** Basis Set Parameters *****************************
  
 plane wave basis set cut-off                   :   600.0000   eV
 size of standard grid                          :     1.7500
 size of   fine   gmax                          :    21.9610   1/A
 finite basis set correction                    : automatic
 number of sample energies                      :          3
           sample  spacing                      :     5.0000   eV

 **************************** Electronic Parameters ****************************
  
 number of  electrons                           :  24.00    
 net charge of system                           :  0.000    
 treating system as non-spin-polarized
 number of bands                                :         16

 ********************* Electronic Minimization Parameters **********************
  
 Method: Treating system as metallic with density mixing treatment of electrons,
         and number of  SD  steps               :          1
         and number of  CG  steps               :          4
  
 total energy / atom convergence tol.           : 0.1000E-04   eV
 eigen-energy convergence tolerance             : 0.1000E-05   eV
 max force / atom convergence tol.              : ignored
 convergence tolerance window                   :          3   cycles
 max. number of SCF cycles                      :        250
 number of fixed-spin iterations                :         10
 smearing scheme                                : Gaussian
 smearing width                                 : 0.1000       eV
 Fermi energy convergence tolerance             : 0.2721E-13   eV
 periodic dipole correction                     : NONE

 ************************** Density Mixing Parameters **************************
  
 density-mixing scheme                          : Pulay
 max. length of mixing history                  :         20
 charge density mixing amplitude                : 0.8000    
 cut-off energy for mixing                      :  600.0       eV

 *********************** Population Analysis Parameters ************************
  
 Population analysis with cutoff                :  3.000       A

 *******************************************************************************
  

                           -------------------------------
                                      Unit Cell
                           -------------------------------
        Real Lattice(A)                      Reciprocal Lattice(1/A)
   3.2290450   0.0000000   0.0000000        1.9458339   0.0000000   0.0000000
   0.0000000   3.1657310   0.0316570        0.0000000   1.9849487  -0.0198493
   0.0000000   0.0316570   3.1657310        0.0000000  -0.0198493   1.9849487

                       Lattice parameters(A)       Cell Angles
                    a =    3.229045          alpha =   88.854134
                    b =    3.165889          beta  =   90.000000
                    c =    3.165889          gamma =   90.000000

                       Current cell volume =   32.357778       A**3
                                   density =    2.958609   AMU/A**3
                                           =    4.912885     g/cm^3

                           -------------------------------
                                     Cell Contents
                           -------------------------------
                         Total number of ions in cell =    2
                      Total number of species in cell =    1
                        Max number of any one species =    2

            xxxxxxxxxxxxxxxxxxxxxxxxxxxxxxxxxxxxxxxxxxxxxxxxxxxxxxxxxxxx
            x  Element    Atom        Fractional coordinates of atoms  x
            x            Number           u          v          w      x
            x----------------------------------------------------------x
            x  Ti           1         0.000000   0.000000   0.000000   x 
            x  Ti           2         0.500000   0.500000   0.500000   x 
            xxxxxxxxxxxxxxxxxxxxxxxxxxxxxxxxxxxxxxxxxxxxxxxxxxxxxxxxxxxx


                         No user defined ionic velocities

                           -------------------------------
                                   Details of Species
                           -------------------------------

                               Mass of species in AMU
                                    Ti   47.8670000

                          Electric Quadrupole Moment (Barn)
                                    Ti    0.3020000 Isotope 47

                          Files used for pseudopotentials:
                                    Ti 3|1.8|9|10|11|30U:40:31:32(qc=5.5)

                           -------------------------------
                              k-Points For BZ Sampling
                           -------------------------------
                       MP grid size for SCF calculation is  8  8  8
                            with an offset of   0.000  0.000  0.000
                       Number of kpoints used =           256

                           -------------------------------
                               Symmetry and Constraints
                           -------------------------------

                      Cell is a supercell containing 2 primitive cells
                      Maximum deviation from symmetry =  0.00000         ANG

                      Number of symmetry operations   =           1
                      Number of ionic constraints     =           3
                      Point group of crystal =     1: C1, 1, 1
                      Space group of crystal =    69: Fmmm, -F 2 2

             Set iprint > 1 for details on symmetry rotations/translations

                         Centre of mass is constrained
             Set iprint > 1 for details of linear ionic constraints

                         Number of cell constraints= 0
                         Cell constraints are:  1 2 3 4 5 6

                         External pressure/stress (GPa)
                          0.00000   0.00000   0.00000
                                    0.00000   0.00000
                                              0.00000
  
+---------------- MEMORY AND SCRATCH DISK ESTIMATES PER PROCESS --------------+
|                                                     Memory          Disk    |
| Baseline code, static data and system overhead      172.0 MB         0.0 MB |
| BLAS internal memory storage                          0.0 MB         0.0 MB |
| Model and support data                               44.4 MB         0.0 MB |
| Electronic energy minimisation requirements           8.1 MB         0.0 MB |
| Force calculation requirements                        2.0 MB         0.0 MB |
| Stress calculation requirements                       2.2 MB         0.0 MB |
|                                               ----------------------------- |
| Approx. total storage required per process          224.4 MB         0.0 MB |
|                                                                             |
| Requirements will fluctuate during execution and may exceed these estimates |
+-----------------------------------------------------------------------------+
Calculating finite basis set correction with  3 cut-off energies.
Calculating total energy with cut-off of  590.000 eV.
------------------------------------------------------------------------ <-- SCF
SCF loop      Energy           Fermi           Energy gain       Timer   <-- SCF
                               energy          per atom          (sec)   <-- SCF
------------------------------------------------------------------------ <-- SCF
Initial  -2.89936748E+003  0.00000000E+000                         8.99  <-- SCF
      1  -3.13477782E+003  1.12162058E+001   1.17705171E+002       9.34  <-- SCF
      2  -3.18682652E+003  9.49154534E+000   2.60243495E+001       9.63  <-- SCF
      3  -3.18738722E+003  9.45972930E+000   2.80351492E-001       9.93  <-- SCF
      4  -3.18724133E+003  8.81457998E+000  -7.29482487E-002      10.26  <-- SCF
      5  -3.18713158E+003  9.07227335E+000  -5.48726759E-002      10.61  <-- SCF
      6  -3.18713202E+003  9.06086828E+000   2.21205111E-004      11.02  <-- SCF
      7  -3.18713193E+003  9.06030237E+000  -4.56526107E-005      11.34  <-- SCF
      8  -3.18713192E+003  9.05873796E+000  -5.51122246E-006      11.57  <-- SCF
      9  -3.18713192E+003  9.05838315E+000   3.78010471E-007      11.80  <-- SCF
------------------------------------------------------------------------ <-- SCF
 
Final energy, E             =  -3187.108061483     eV
Final free energy (E-TS)    =  -3187.131920922     eV
(energies not corrected for finite basis set)
 
NB est. 0K energy (E-0.5TS)      =  -3187.119991203     eV
 
Calculating total energy with cut-off of  595.000 eV.
------------------------------------------------------------------------ <-- SCF
SCF loop      Energy           Fermi           Energy gain       Timer   <-- SCF
                               energy          per atom          (sec)   <-- SCF
------------------------------------------------------------------------ <-- SCF
Initial  -3.18710806E+003  0.00000000E+000                        11.95  <-- SCF
      1  -3.18713195E+003  9.05856866E+000   1.19466708E-002      12.16  <-- SCF
      2  -3.18713195E+003  9.05856865E+000   7.44076644E-008      12.38  <-- SCF
      3  -3.18713198E+003  9.05858706E+000   1.09031978E-005      12.66  <-- SCF
      4  -3.18713195E+003  9.05859158E+000  -1.20112084E-005      12.93  <-- SCF
      5  -3.18713195E+003  9.05858757E+000   1.83403832E-007      13.15  <-- SCF
      6  -3.18713195E+003  9.05858937E+000   5.83775253E-008      13.36  <-- SCF
------------------------------------------------------------------------ <-- SCF
 
Final energy, E             =  -3187.108092167     eV
Final free energy (E-TS)    =  -3187.131952842     eV
(energies not corrected for finite basis set)
 
NB est. 0K energy (E-0.5TS)      =  -3187.120022505     eV
 
Calculating total energy with cut-off of  600.000 eV.
------------------------------------------------------------------------ <-- SCF
SCF loop      Energy           Fermi           Energy gain       Timer   <-- SCF
                               energy          per atom          (sec)   <-- SCF
------------------------------------------------------------------------ <-- SCF
Initial  -3.18710809E+003  0.00000000E+000                        13.51  <-- SCF
      1  -3.18713198E+003  9.05858515E+000   1.19462647E-002      13.73  <-- SCF
      2  -3.18713198E+003  9.05858515E+000   1.82122705E-008      13.95  <-- SCF
      3  -3.18713199E+003  9.05859382E+000   4.19163930E-007      14.16  <-- SCF
      4  -3.18713198E+003  9.05859092E+000  -4.72081680E-007      14.38  <-- SCF
------------------------------------------------------------------------ <-- SCF
 
Final energy, E             =  -3187.108124036     eV
Final free energy (E-TS)    =  -3187.131984608     eV
(energies not corrected for finite basis set)
 
NB est. 0K energy (E-0.5TS)      =  -3187.120054322     eV
 
 For future reference: finite basis dEtot/dlog(Ecut) =      -0.003847eV
 Total energy corrected for finite basis set =   -3187.131985 eV

 ******************* Unconstrained Forces *******************
 *                                                          *
 *               Cartesian components (eV/A)                *
 * -------------------------------------------------------- *
 *                         x            y            z      *
 *                                                          *
 * Ti              1      0.00000      0.00000     -0.00000 *
 * Ti              2     -0.00000     -0.00000      0.00000 *
 *                                                          *
 ************************************************************

 ******************** Constrained Forces ********************
 *                                                          *
 *               Cartesian components (eV/A)                *
 * -------------------------------------------------------- *
 *                         x            y            z      *
 *                                                          *
 * Ti              1      0.00000      0.00000     -0.00000 *
 * Ti              2     -0.00000     -0.00000      0.00000 *
 *                                                          *
 ************************************************************

 ***************** Stress Tensor *****************
 *                                               *
 *          Cartesian components (GPa)           *
 * --------------------------------------------- *
 *             x             y             z     *
 *                                               *
 *  x      2.136339      0.000002     -0.000006  *
 *  y      0.000002      2.336693      0.446420  *
 *  z     -0.000006      0.446420      2.336716  *
 *                                               *
 *  Pressure:   -2.2699                          *
 *                                               *
 *************************************************

 Pseudo atomic calculation performed for Ti 3s2 3p6 3d2 4s2

 Converged in 31 iterations to a total energy of -1585.9998 eV

Charge spilling parameter for spin component 1 = 0.07%

     Atomic Populations (Mulliken)
     -----------------------------
Species          Ion     s      p      d      f     Total  Charge (e)
=====================================================================
  Ti              1     2.31   6.88   2.80   0.00  12.00    -0.00
  Ti              2     2.31   6.88   2.80   0.00  12.00     0.00
=====================================================================

                 Bond                   Population      Length (A)
======================================================================
              Ti 1 -- Ti 2                   0.82        2.74188
======================================================================

 
 A BibTeX formatted list of references used in this run has been written to 
 castep.bib
 
Initialisation time =      7.21 s
Calculation time    =      8.27 s
Finalisation time   =      0.02 s
Total time          =     15.49 s
Peak Memory Use     = 463912 kB
  
Overall parallel efficiency rating: Mediocre (52%)                              
  
Data was distributed by:-
k-point (48-way); efficiency rating: Mediocre (53%)                             
  
Parallel notes:
1) Calculation only took 15.5 s, so efficiency estimates may be inaccurate.     
