 +-------------------------------------------------+
 |                                                 |
 |      CCC   AA    SSS  TTTTT  EEEEE  PPPP        |
 |     C     A  A  S       T    E      P   P       |
 |     C     AAAA   SS     T    EEE    PPPP        |
 |     C     A  A     S    T    E      P           |
 |      CCC  A  A  SSS     T    EEEEE  P           |
 |                                                 |
 +-------------------------------------------------+
 |                                                 |
 | Welcome to Academic Release CASTEP version 17.21|          
 | Ab Initio Total Energy Program                  |
 |                                                 |
 | Authors:                                        |
 | M. Segall, M. Probert, C. Pickard, P. Hasnip,   |
 | S. Clark, K. Refson, J. R. Yates, M. Payne      |
 |                                                 |
 | Contributors:                                   |
 | P. Lindan, P. Haynes, J. White, V. Milman,      |
 | N. Govind, M. Gibson, P. Tulip, V. Cocula,      |
 | B. Montanari, D. Quigley, M. Glover,            |
 | L. Bernasconi, A. Perlov, M. Plummer,           |
 | E. McNellis, J. Meyer, J. Gale, D. Jochym       |
 | J. Aarons, B. Walker, R. Gillen, D. Jones       |
 | T. Green, I. J. Bush, C. J. Armstrong,          |
 | E. J. Higgins, E. L. Brown, M. S. McFly,        |
 | J. Wilkins, B-C. Shih, P. J. P. Byrne           |
 |                                                 |
 | Copyright (c) 2000 - 2017                       |
 |                                                 |
 |     Distributed under the terms of an           |
 |     Agreement between the United Kingdom        |
 |     Car-Parrinello (UKCP) Consortium,           |
 |     Daresbury Laboratory and Accelrys, Inc.     |
 |                                                 |
 | Please cite                                     |
 |                                                 |
 |     "First principles methods using CASTEP"     |
 |                                                 |
 |         Zeitschrift fuer Kristallographie       |
 |           220(5-6) pp. 567-570 (2005)           |
 |                                                 |
 | S. J. Clark, M. D. Segall, C. J. Pickard,       |
 | P. J. Hasnip, M. J. Probert, K. Refson,         |
 | M. C. Payne                                     |
 |                                                 |
 |       in all publications arising from          |
 |              your use of CASTEP                 |
 |                                                 |
 +-------------------------------------------------+
 
 
 Compiled for linux_x86_64_ifort17 on Fri, 08 Dec 2017 17:04:03 +0000
 from code version 
 056e886bd5a1+ Castep172_branch Mon, 15 May 2017 14:45:35 +0100
 Compiler: Intel Fortran 17.0.4.196; Optimisation: fast
 MATHLIBS: Intel MKL(2017.0.3) (LAPACK version 3.7.0)
 FFT Lib : mkl
 Fundamental constants values: CODATA 2010
 
 Run started: Tue, 30 Jun 2020 00:16:00 +0100
 
 Atomic calculation performed for Ti: 1s2 2s2 2p6 3s2 3p6 3d2 4s2
 
 Converged in 78 iterations to an ae energy of -23176.516 eV
 
   ============================================================                
   | Pseudopotential Report - Date of generation 30-06-2020   |                
   ------------------------------------------------------------                
   | Element: Ti Ionic charge: 12.00 Level of theory: LDA     |                
   | Atomic Solver: Koelling-Harmon                           |                
   |                                                          |                
   |               Reference Electronic Structure             |                
   |         Orbital         Occupation         Energy        |                
   |            3s              2.000           -2.288        |                
   |            3p              6.000           -1.425        |                
   |            4s              2.000           -0.169        |                
   |            3d              2.000           -0.164        |                
   |                                                          |                
   |                 Pseudopotential Definition               |                
   |        Beta     l      e      Rc     scheme   norm       |                
   |          1      0   -2.288   1.793     qc      0         |                
   |          2      0   -0.169   1.793     qc      0         |                
   |          3      0    0.250   1.793     qc      0         |                
   |          4      1   -1.425   1.793     qc      0         |                
   |          5      1    0.250   1.793     qc      0         |                
   |          6      2   -0.164   1.793     qc      0         |                
   |          7      2    0.250   1.793     qc      0         |                
   |         loc     3    0.000   1.793     pn      0         |                
   |                                                          |                
   | Augmentation charge Rinner = 1.263                       |                
   | Partial core correction Rc = 1.263                       |                
   ------------------------------------------------------------                
   | "3|1.8|9|10|11|30U:40:31:32(qc=5.5)"                     |                
   ------------------------------------------------------------                
   |      Author: Chris J. Pickard, Cambridge University      |                
   ============================================================                
 
 Pseudo atomic calculation performed for Ti 3s2 3p6 3d2 4s2
 
 Converged in 38 iterations to a total energy of -1586.0195 eV
 
 Calculation parallelised over 32 processes.
 Data is distributed by k-point(32-way)

 ************************************ Title ************************************
 

 ***************************** General Parameters ******************************
  
 output verbosity                               : normal  (1)
 write checkpoint data to                       : castep.check
 type of calculation                            : single point energy
 stress calculation                             : on
 density difference calculation                 : off
 electron localisation func (ELF) calculation   : off
 Hirshfeld analysis                             : off
 unlimited duration calculation
 timing information                             : on
 memory usage estimate                          : on
 write final potential to formatted file        : off
 write final density to formatted file          : off
 write BibTeX reference list                    : on
 write OTFG pseudopotential files               : on
 write electrostatic potential file             : on
 write bands file                               : on
 checkpoint writing                             : off
  
 output         length unit                     : A
 output           mass unit                     : amu
 output           time unit                     : ps
 output         charge unit                     : e
 output           spin unit                     : hbar/2
 output         energy unit                     : eV
 output          force unit                     : eV/A
 output       velocity unit                     : A/ps
 output       pressure unit                     : GPa
 output     inv_length unit                     : 1/A
 output      frequency unit                     : cm-1
 output force constant unit                     : eV/A**2
 output         volume unit                     : A**3
 output   IR intensity unit                     : (D/A)**2/amu
 output         dipole unit                     : D
 output         efield unit                     : eV/A/e
 output        entropy unit                     : J/mol/K
  
 wavefunctions paging                           : none
 random number generator seed                   : randomised (1600917)
 data distribution                              : optimal for this architecture
 optimization strategy                          : balance speed and memory

 *********************** Exchange-Correlation Parameters ***********************
  
 using functional                               : Local Density Approximation
 relativistic treatment                         : Koelling-Harmon
 DFT+D: Semi-empirical dispersion correction    : off

 ************************* Pseudopotential Parameters **************************
  
 pseudopotential representation                 : reciprocal space
 <beta|phi> representation                      : reciprocal space
 spin-orbit coupling                            : off

 **************************** Basis Set Parameters *****************************
  
 plane wave basis set cut-off                   :   700.0000   eV
 size of standard grid                          :     1.7500
 size of   fine   grid                          :     2.0000
 size of   fine   gmax                          :    27.1093   1/A
 finite basis set correction                    : automatic
 number of sample energies                      :          3
           sample  spacing                      :     5.0000   eV

 **************************** Electronic Parameters ****************************
  
 number of  electrons                           :  24.00    
 net charge of system                           :  0.000    
 treating system as non-spin-polarized
 number of bands                                :         16

 ********************* Electronic Minimization Parameters **********************
  
 Method: Treating system as metallic with density mixing treatment of electrons,
         and number of  SD  steps               :          1
         and number of  CG  steps               :          4
  
 total energy / atom convergence tol.           : 0.1000E-06   eV
 eigen-energy convergence tolerance             : 0.1667E-07   eV
 max force / atom convergence tol.              : 0.1000E-02   eV/A
 convergence tolerance window                   :          3   cycles
 max. number of SCF cycles                      :         30
 number of fixed-spin iterations                :         10
 smearing scheme                                : Gaussian
 smearing width                                 : 0.1000       eV
 Fermi energy convergence tolerance             : 0.2721E-13   eV
 periodic dipole correction                     : NONE

 ************************** Density Mixing Parameters **************************
  
 density-mixing scheme                          : Pulay
 max. length of mixing history                  :         20
 charge density mixing amplitude                : 0.8000    
 cut-off energy for mixing                      :  700.0       eV

 *********************** Population Analysis Parameters ************************
  
 Population analysis with cutoff                :  3.000       A

 *******************************************************************************
  
 
                           -------------------------------
                                      Unit Cell
                           -------------------------------
        Real Lattice(A)                      Reciprocal Lattice(1/A)
   3.1657310   0.0000000   0.0000000        1.9847502   0.0000000   0.0000000
   0.0000000   3.1657310   0.0000000        0.0000000   1.9847502   0.0000000
   0.0000000   0.0000000   3.1657310        0.0000000   0.0000000   1.9847502
 
                       Lattice parameters(A)       Cell Angles
                    a =    3.165731          alpha =   90.000000
                    b =    3.165731          beta  =   90.000000
                    c =    3.165731          gamma =   90.000000
 
                       Current cell volume =   31.726490       A**3
                                   density =    3.017478   AMU/A**3
                                           =    5.010640     g/cm^3
 
                           -------------------------------
                                     Cell Contents
                           -------------------------------
                         Total number of ions in cell =    2
                      Total number of species in cell =    1
                        Max number of any one species =    2
 
            xxxxxxxxxxxxxxxxxxxxxxxxxxxxxxxxxxxxxxxxxxxxxxxxxxxxxxxxxxxx
            x  Element    Atom        Fractional coordinates of atoms  x
            x            Number           u          v          w      x
            x----------------------------------------------------------x
            x  Ti           1         0.000000   0.000000   0.000000   x 
            x  Ti           2         0.500000   0.500000   0.500000   x 
            xxxxxxxxxxxxxxxxxxxxxxxxxxxxxxxxxxxxxxxxxxxxxxxxxxxxxxxxxxxx
 
 
                         No user defined ionic velocities
 
                           -------------------------------
                                   Details of Species
                           -------------------------------
 
                               Mass of species in AMU
                                    Ti   47.8670000
 
                          Electric Quadrupole Moment (Barn)
                                    Ti    0.3020000 Isotope 47
 
                          Files used for pseudopotentials:
                                    Ti 3|1.8|9|10|11|30U:40:31:32(qc=5.5)
 
                           -------------------------------
                              k-Points For BZ Sampling
                           -------------------------------
                       MP grid size for SCF calculation is 16 16 16
                            with an offset of   0.000  0.000  0.000
                       Number of kpoints used =          2048
 
                           -------------------------------
                               Symmetry and Constraints
                           -------------------------------
 
                      Cell is a supercell containing 2 primitive cells
                      Maximum deviation from symmetry =  0.00000         ANG
 
                      Number of symmetry operations   =           1
                      Number of ionic constraints     =           3
                      Point group of crystal =     1: C1, 1, 1
                      Space group of crystal =   229: Im-3m, -I 4 2 3
 
             Set iprint > 1 for details on symmetry rotations/translations
 
                         Centre of mass is constrained
             Set iprint > 1 for details of linear ionic constraints
 
                         Number of cell constraints= 0
                         Cell constraints are:  1 2 3 4 5 6
 
                         External pressure/stress (GPa)
                          0.00000   0.00000   0.00000
                                    0.00000   0.00000
                                              0.00000
  
+---------------- MEMORY AND SCRATCH DISK ESTIMATES PER PROCESS --------------+
|                                                     Memory          Disk    |
| Baseline code, static data and system overhead      388.0 MB         0.0 MB |
| BLAS internal memory storage                          0.0 MB         0.0 MB |
| Model and support data                               57.7 MB        40.5 MB |
| Electronic energy minimisation requirements          50.4 MB         0.0 MB |
| Force calculation requirements                        4.5 MB         0.0 MB |
| Stress calculation requirements                       5.0 MB         0.0 MB |
|                                               ----------------------------- |
| Approx. total storage required per process          496.1 MB        40.5 MB |
|                                                                             |
| Requirements will fluctuate during execution and may exceed these estimates |
+-----------------------------------------------------------------------------+
Calculating finite basis set correction with  3 cut-off energies.
Calculating total energy with cut-off of  690.000 eV.
------------------------------------------------------------------------ <-- SCF
SCF loop      Energy           Fermi           Energy gain       Timer   <-- SCF
                               energy          per atom          (sec)   <-- SCF
------------------------------------------------------------------------ <-- SCF
Initial  -2.89737768E+003  0.00000000E+000                         8.83  <-- SCF
      1  -3.13462855E+003  1.14488710E+001   1.18625435E+002      12.55  <-- SCF
          Max force change        7.605E-002                             <-- SCF
      2  -3.18680161E+003  9.73283372E+000   2.60865325E+001      15.90  <-- SCF
          Max force change        6.161E-002                             <-- SCF
      3  -3.18738973E+003  9.69530395E+000   2.94059136E-001      19.46  <-- SCF
          Max force change        1.374E-002                             <-- SCF
      4  -3.18723816E+003  9.04994191E+000  -7.57861970E-002      23.00  <-- SCF
          Max force change        3.862E-003                             <-- SCF
      5  -3.18713881E+003  9.30201793E+000  -4.96732211E-002      26.75  <-- SCF
          Max force change        1.610E-003                             <-- SCF
      6  -3.18713915E+003  9.29029371E+000   1.71511691E-004      31.09  <-- SCF
          Max force change        2.205E-003                             <-- SCF
      7  -3.18713909E+003  9.28982695E+000  -3.05316743E-005      34.94  <-- SCF
          Max force change        2.458E-004                             <-- SCF
      8  -3.18713909E+003  9.28790615E+000  -2.73411319E-006      38.50  <-- SCF
          Max force change        1.147E-003                             <-- SCF
      9  -3.18713909E+003  9.28822352E+000  -6.97999759E-008      41.63  <-- SCF
          Max force change        4.807E-004                             <-- SCF
     10  -3.18713909E+003  9.28825155E+000   1.90448292E-009      44.04  <-- SCF
          Max force change        7.037E-005                             <-- SCF
     11  -3.18713909E+003  9.28826046E+000   1.34531900E-009      46.42  <-- SCF
          Max force change        3.247E-006                             <-- SCF
------------------------------------------------------------------------ <-- SCF
 
Final energy, E             =  -3187.118992394     eV
Final free energy (E-TS)    =  -3187.139087807     eV
(energies not corrected for finite basis set)
 
NB est. 0K energy (E-0.5TS)      =  -3187.129040100     eV
 
Calculating total energy with cut-off of  695.000 eV.
------------------------------------------------------------------------ <-- SCF
SCF loop      Energy           Fermi           Energy gain       Timer   <-- SCF
                               energy          per atom          (sec)   <-- SCF
------------------------------------------------------------------------ <-- SCF
Initial  -3.18711899E+003  0.00000000E+000                        47.81  <-- SCF
      1  -3.18713913E+003  9.28823923E+000   1.00706607E-002      50.46  <-- SCF
          Max force change        2.187E-006                             <-- SCF
      2  -3.18713913E+003  9.28823923E+000   4.49264621E-009      52.78  <-- SCF
          Max force change        1.654E-007                             <-- SCF
      3  -3.18713913E+003  9.28824548E+000   4.32211282E-009      55.06  <-- SCF
          Max force change        6.347E-006                             <-- SCF
      4  -3.18713913E+003  9.28824590E+000  -2.86735855E-009      57.34  <-- SCF
          Max force change        3.323E-007                             <-- SCF
------------------------------------------------------------------------ <-- SCF
 
Final energy, E             =  -3187.119038281     eV
Final free energy (E-TS)    =  -3187.139133727     eV
(energies not corrected for finite basis set)
 
NB est. 0K energy (E-0.5TS)      =  -3187.129086004     eV
 
Calculating total energy with cut-off of  700.000 eV.
------------------------------------------------------------------------ <-- SCF
SCF loop      Energy           Fermi           Energy gain       Timer   <-- SCF
                               energy          per atom          (sec)   <-- SCF
------------------------------------------------------------------------ <-- SCF
Initial  -3.18711904E+003  0.00000000E+000                        58.71  <-- SCF
      1  -3.18713918E+003  9.28824268E+000   1.00715303E-002      61.38  <-- SCF
          Max force change        9.343E-007                             <-- SCF
      2  -3.18713918E+003  9.28824268E+000   4.44701596E-009      63.67  <-- SCF
          Max force change        8.767E-008                             <-- SCF
      3  -3.18713918E+003  9.28823965E+000   7.13591383E-009      65.95  <-- SCF
          Max force change        9.070E-007                             <-- SCF
      4  -3.18713918E+003  9.28824258E+000  -6.46306098E-009      68.24  <-- SCF
          Max force change        1.724E-007                             <-- SCF
------------------------------------------------------------------------ <-- SCF
 
Final energy, E             =  -3187.119085931     eV
Final free energy (E-TS)    =  -3187.139181351     eV
(energies not corrected for finite basis set)
 
NB est. 0K energy (E-0.5TS)      =  -3187.129133641     eV
 
 For future reference: finite basis dEtot/dlog(Ecut) =      -0.006541eV
 Total energy corrected for finite basis set =   -3187.139182 eV
 
 ******************* Unconstrained Forces *******************
 *                                                          *
 *               Cartesian components (eV/A)                *
 * -------------------------------------------------------- *
 *                         x            y            z      *
 *                                                          *
 * Ti              1     -0.00000     -0.00000     -0.00000 *
 * Ti              2      0.00000      0.00000      0.00000 *
 *                                                          *
 ************************************************************
 
 ******************** Constrained Forces ********************
 *                                                          *
 *               Cartesian components (eV/A)                *
 * -------------------------------------------------------- *
 *                         x            y            z      *
 *                                                          *
 * Ti              1     -0.00000     -0.00000     -0.00000 *
 * Ti              2      0.00000      0.00000      0.00000 *
 *                                                          *
 ************************************************************
 
 ***************** Stress Tensor *****************
 *                                               *
 *          Cartesian components (GPa)           *
 * --------------------------------------------- *
 *             x             y             z     *
 *                                               *
 *  x      0.059107      0.000000     -0.000000  *
 *  y      0.000000      0.059108     -0.000001  *
 *  z     -0.000000     -0.000001      0.059108  *
 *                                               *
 *  Pressure:   -0.0591                          *
 *                                               *
 *************************************************
 
 Pseudo atomic calculation performed for Ti 3s2 3p6 3d2 4s2
 
 Converged in 38 iterations to a total energy of -1586.0195 eV
 
Charge spilling parameter for spin component 1 = 0.07%
 
     Atomic Populations (Mulliken)
     -----------------------------
Species          Ion     s      p      d      f     Total  Charge (e)
=====================================================================
  Ti              1     2.30   6.88   2.82   0.00  12.00     0.00
  Ti              2     2.30   6.88   2.82   0.00  12.00    -0.00
=====================================================================
 
                 Bond                   Population      Length (A)
======================================================================
              Ti 1 -- Ti 2                   0.72        2.74160
======================================================================
 
 
 A BibTeX formatted list of references used in this run has been written to 
 castep.bib
 
Initialisation time =      6.25 s
Calculation time    =     64.95 s
Finalisation time   =      0.49 s
Total time          =     71.69 s
Peak Memory Use     = 707288 kB
  
Overall parallel efficiency rating: Very good (86%)                             
  
Data was distributed by:-
k-point (32-way); efficiency rating: Very good (89%)                            
  
Parallel notes:
1) Calculation only took 71.3 s, so efficiency estimates may be inaccurate.     
 +-------------------------------------------------+
 |                                                 |
 |      CCC   AA    SSS  TTTTT  EEEEE  PPPP        |
 |     C     A  A  S       T    E      P   P       |
 |     C     AAAA   SS     T    EEE    PPPP        |
 |     C     A  A     S    T    E      P           |
 |      CCC  A  A  SSS     T    EEEEE  P           |
 |                                                 |
 +-------------------------------------------------+
 |                                                 |
 | Welcome to Academic Release CASTEP version 17.21|          
 | Ab Initio Total Energy Program                  |
 |                                                 |
 | Authors:                                        |
 | M. Segall, M. Probert, C. Pickard, P. Hasnip,   |
 | S. Clark, K. Refson, J. R. Yates, M. Payne      |
 |                                                 |
 | Contributors:                                   |
 | P. Lindan, P. Haynes, J. White, V. Milman,      |
 | N. Govind, M. Gibson, P. Tulip, V. Cocula,      |
 | B. Montanari, D. Quigley, M. Glover,            |
 | L. Bernasconi, A. Perlov, M. Plummer,           |
 | E. McNellis, J. Meyer, J. Gale, D. Jochym       |
 | J. Aarons, B. Walker, R. Gillen, D. Jones       |
 | T. Green, I. J. Bush, C. J. Armstrong,          |
 | E. J. Higgins, E. L. Brown, M. S. McFly,        |
 | J. Wilkins, B-C. Shih, P. J. P. Byrne           |
 |                                                 |
 | Copyright (c) 2000 - 2017                       |
 |                                                 |
 |     Distributed under the terms of an           |
 |     Agreement between the United Kingdom        |
 |     Car-Parrinello (UKCP) Consortium,           |
 |     Daresbury Laboratory and Accelrys, Inc.     |
 |                                                 |
 | Please cite                                     |
 |                                                 |
 |     "First principles methods using CASTEP"     |
 |                                                 |
 |         Zeitschrift fuer Kristallographie       |
 |           220(5-6) pp. 567-570 (2005)           |
 |                                                 |
 | S. J. Clark, M. D. Segall, C. J. Pickard,       |
 | P. J. Hasnip, M. J. Probert, K. Refson,         |
 | M. C. Payne                                     |
 |                                                 |
 |       in all publications arising from          |
 |              your use of CASTEP                 |
 |                                                 |
 +-------------------------------------------------+
 
 
 Compiled for linux_x86_64_ifort17 on Fri, 08 Dec 2017 17:04:03 +0000
 from code version 
 056e886bd5a1+ Castep172_branch Mon, 15 May 2017 14:45:35 +0100
 Compiler: Intel Fortran 17.0.4.196; Optimisation: fast
 MATHLIBS: Intel MKL(2017.0.3) (LAPACK version 3.7.0)
 FFT Lib : mkl
 Fundamental constants values: CODATA 2010
 
 Run started: Tue, 30 Jun 2020 00:17:13 +0100
 
 Atomic calculation performed for Ti: 1s2 2s2 2p6 3s2 3p6 3d2 4s2
 
 Converged in 78 iterations to an ae energy of -23176.516 eV
 
   ============================================================                
   | Pseudopotential Report - Date of generation 30-06-2020   |                
   ------------------------------------------------------------                
   | Element: Ti Ionic charge: 12.00 Level of theory: LDA     |                
   | Atomic Solver: Koelling-Harmon                           |                
   |                                                          |                
   |               Reference Electronic Structure             |                
   |         Orbital         Occupation         Energy        |                
   |            3s              2.000           -2.288        |                
   |            3p              6.000           -1.425        |                
   |            4s              2.000           -0.169        |                
   |            3d              2.000           -0.164        |                
   |                                                          |                
   |                 Pseudopotential Definition               |                
   |        Beta     l      e      Rc     scheme   norm       |                
   |          1      0   -2.288   1.793     qc      0         |                
   |          2      0   -0.169   1.793     qc      0         |                
   |          3      0    0.250   1.793     qc      0         |                
   |          4      1   -1.425   1.793     qc      0         |                
   |          5      1    0.250   1.793     qc      0         |                
   |          6      2   -0.164   1.793     qc      0         |                
   |          7      2    0.250   1.793     qc      0         |                
   |         loc     3    0.000   1.793     pn      0         |                
   |                                                          |                
   | Augmentation charge Rinner = 1.263                       |                
   | Partial core correction Rc = 1.263                       |                
   ------------------------------------------------------------                
   | "3|1.8|9|10|11|30U:40:31:32(qc=5.5)"                     |                
   ------------------------------------------------------------                
   |      Author: Chris J. Pickard, Cambridge University      |                
   ============================================================                
 
 Pseudo atomic calculation performed for Ti 3s2 3p6 3d2 4s2
 
 Converged in 38 iterations to a total energy of -1586.0195 eV
 
 Calculation parallelised over 32 processes.
 Data is distributed by k-point(32-way)

 ************************************ Title ************************************
 

 ***************************** General Parameters ******************************
  
 output verbosity                               : normal  (1)
 write checkpoint data to                       : castep.check
 type of calculation                            : single point energy
 stress calculation                             : on
 density difference calculation                 : off
 electron localisation func (ELF) calculation   : off
 Hirshfeld analysis                             : off
 unlimited duration calculation
 timing information                             : on
 memory usage estimate                          : on
 write final potential to formatted file        : off
 write final density to formatted file          : off
 write BibTeX reference list                    : on
 write OTFG pseudopotential files               : on
 write electrostatic potential file             : on
 write bands file                               : on
 checkpoint writing                             : off
  
 output         length unit                     : A
 output           mass unit                     : amu
 output           time unit                     : ps
 output         charge unit                     : e
 output           spin unit                     : hbar/2
 output         energy unit                     : eV
 output          force unit                     : eV/A
 output       velocity unit                     : A/ps
 output       pressure unit                     : GPa
 output     inv_length unit                     : 1/A
 output      frequency unit                     : cm-1
 output force constant unit                     : eV/A**2
 output         volume unit                     : A**3
 output   IR intensity unit                     : (D/A)**2/amu
 output         dipole unit                     : D
 output         efield unit                     : eV/A/e
 output        entropy unit                     : J/mol/K
  
 wavefunctions paging                           : none
 random number generator seed                   : randomised (1713433)
 data distribution                              : optimal for this architecture
 optimization strategy                          : maximize speed(+++)

 *********************** Exchange-Correlation Parameters ***********************
  
 using functional                               : Local Density Approximation
 relativistic treatment                         : Koelling-Harmon
 DFT+D: Semi-empirical dispersion correction    : off

 ************************* Pseudopotential Parameters **************************
  
 pseudopotential representation                 : reciprocal space
 <beta|phi> representation                      : reciprocal space
 spin-orbit coupling                            : off

 **************************** Basis Set Parameters *****************************
  
 plane wave basis set cut-off                   :   700.0000   eV
 size of standard grid                          :     1.7500
 size of   fine   grid                          :     2.0000
 size of   fine   gmax                          :    27.1093   1/A
 finite basis set correction                    : automatic
 number of sample energies                      :          3
           sample  spacing                      :     5.0000   eV

 **************************** Electronic Parameters ****************************
  
 number of  electrons                           :  24.00    
 net charge of system                           :  0.000    
 treating system as non-spin-polarized
 number of bands                                :         16

 ********************* Electronic Minimization Parameters **********************
  
 Method: Treating system as metallic with density mixing treatment of electrons,
         and number of  SD  steps               :          1
         and number of  CG  steps               :          4
  
 total energy / atom convergence tol.           : 0.1000E-06   eV
 eigen-energy convergence tolerance             : 0.1667E-07   eV
 max force / atom convergence tol.              : 0.1000E-02   eV/A
 convergence tolerance window                   :          3   cycles
 max. number of SCF cycles                      :         30
 number of fixed-spin iterations                :         10
 smearing scheme                                : Gaussian
 smearing width                                 : 0.1000       eV
 Fermi energy convergence tolerance             : 0.2721E-13   eV
 periodic dipole correction                     : NONE

 ************************** Density Mixing Parameters **************************
  
 density-mixing scheme                          : Pulay
 max. length of mixing history                  :         20
 charge density mixing amplitude                : 0.8000    
 cut-off energy for mixing                      :  700.0       eV

 *********************** Population Analysis Parameters ************************
  
 Population analysis with cutoff                :  3.000       A

 *******************************************************************************
  
 
                           -------------------------------
                                      Unit Cell
                           -------------------------------
        Real Lattice(A)                      Reciprocal Lattice(1/A)
   3.1391270   0.0000000   0.0000000        2.0015709   0.0000000   0.0000000
   0.0000000   3.1391270   0.0000000        0.0000000   2.0015709   0.0000000
   0.0000000   0.0000000   3.1391270        0.0000000   0.0000000   2.0015709
 
                       Lattice parameters(A)       Cell Angles
                    a =    3.139127          alpha =   90.000000
                    b =    3.139127          beta  =   90.000000
                    c =    3.139127          gamma =   90.000000
 
                       Current cell volume =   30.933329       A**3
                                   density =    3.094850   AMU/A**3
                                           =    5.139118     g/cm^3
 
                           -------------------------------
                                     Cell Contents
                           -------------------------------
                         Total number of ions in cell =    2
                      Total number of species in cell =    1
                        Max number of any one species =    2
 
            xxxxxxxxxxxxxxxxxxxxxxxxxxxxxxxxxxxxxxxxxxxxxxxxxxxxxxxxxxxx
            x  Element    Atom        Fractional coordinates of atoms  x
            x            Number           u          v          w      x
            x----------------------------------------------------------x
            x  Ti           1         0.000000   0.000000   0.000000   x 
            x  Ti           2         0.500000   0.500000   0.500000   x 
            xxxxxxxxxxxxxxxxxxxxxxxxxxxxxxxxxxxxxxxxxxxxxxxxxxxxxxxxxxxx
 
 
                         No user defined ionic velocities
 
                           -------------------------------
                                   Details of Species
                           -------------------------------
 
                               Mass of species in AMU
                                    Ti   47.8670000
 
                          Electric Quadrupole Moment (Barn)
                                    Ti    0.3020000 Isotope 47
 
                          Files used for pseudopotentials:
                                    Ti 3|1.8|9|10|11|30U:40:31:32(qc=5.5)
 
                           -------------------------------
                              k-Points For BZ Sampling
                           -------------------------------
                       MP grid size for SCF calculation is 16 16 16
                            with an offset of   0.000  0.000  0.000
                       Number of kpoints used =          2048
 
                           -------------------------------
                               Symmetry and Constraints
                           -------------------------------
 
                      Cell is a supercell containing 2 primitive cells
                      Maximum deviation from symmetry =  0.00000         ANG
 
                      Number of symmetry operations   =           1
                      Number of ionic constraints     =           3
                      Point group of crystal =     1: C1, 1, 1
                      Space group of crystal =   229: Im-3m, -I 4 2 3
 
             Set iprint > 1 for details on symmetry rotations/translations
 
                         Centre of mass is constrained
             Set iprint > 1 for details of linear ionic constraints
 
                         Number of cell constraints= 0
                         Cell constraints are:  1 2 3 4 5 6
 
                         External pressure/stress (GPa)
                          0.00000   0.00000   0.00000
                                    0.00000   0.00000
                                              0.00000
  
+---------------- MEMORY AND SCRATCH DISK ESTIMATES PER PROCESS --------------+
|                                                     Memory          Disk    |
| Baseline code, static data and system overhead      388.0 MB         0.0 MB |
| BLAS internal memory storage                          0.0 MB         0.0 MB |
| Model and support data                               97.3 MB         0.0 MB |
| Electronic energy minimisation requirements          49.4 MB         0.0 MB |
| Force calculation requirements                        4.5 MB         0.0 MB |
| Stress calculation requirements                       5.0 MB         0.0 MB |
|                                               ----------------------------- |
| Approx. total storage required per process          534.6 MB         0.0 MB |
|                                                                             |
| Requirements will fluctuate during execution and may exceed these estimates |
+-----------------------------------------------------------------------------+
Calculating finite basis set correction with  3 cut-off energies.
Calculating total energy with cut-off of  690.000 eV.
------------------------------------------------------------------------ <-- SCF
SCF loop      Energy           Fermi           Energy gain       Timer   <-- SCF
                               energy          per atom          (sec)   <-- SCF
------------------------------------------------------------------------ <-- SCF
Initial  -2.89949550E+003  0.00000000E+000                         8.30  <-- SCF
      1  -3.13463248E+003  1.17299784E+001   1.17568491E+002      11.96  <-- SCF
          Max force change        1.079E-001                             <-- SCF
      2  -3.18681503E+003  1.00247475E+001   2.60912750E+001      15.30  <-- SCF
          Max force change        1.799E-001                             <-- SCF
      3  -3.18737248E+003  9.98917090E+000   2.78721564E-001      18.81  <-- SCF
          Max force change        3.251E-002                             <-- SCF
      4  -3.18722208E+003  9.36275168E+000  -7.51967842E-002      22.33  <-- SCF
          Max force change        5.193E-003                             <-- SCF
      5  -3.18713138E+003  9.60244738E+000  -4.53499933E-002      26.05  <-- SCF
          Max force change        1.945E-003                             <-- SCF
      6  -3.18713166E+003  9.59131635E+000   1.40609656E-004      30.30  <-- SCF
          Max force change        2.002E-003                             <-- SCF
      7  -3.18713166E+003  9.59007397E+000   3.75128032E-007      34.26  <-- SCF
          Max force change        7.125E-004                             <-- SCF
      8  -3.18713166E+003  9.58919316E+000  -2.98430676E-006      38.10  <-- SCF
          Max force change        4.343E-004                             <-- SCF
      9  -3.18713166E+003  9.58936214E+000  -2.72170911E-008      40.59  <-- SCF
          Max force change        3.736E-004                             <-- SCF
     10  -3.18713166E+003  9.58938704E+000   2.35885195E-009      42.95  <-- SCF
          Max force change        8.982E-005                             <-- SCF
     11  -3.18713166E+003  9.58938795E+000   1.30200893E-009      45.27  <-- SCF
          Max force change        3.633E-006                             <-- SCF
------------------------------------------------------------------------ <-- SCF
 
Final energy, E             =  -3187.112306463     eV
Final free energy (E-TS)    =  -3187.131657727     eV
(energies not corrected for finite basis set)
 
NB est. 0K energy (E-0.5TS)      =  -3187.121982095     eV
 
Calculating total energy with cut-off of  695.000 eV.
------------------------------------------------------------------------ <-- SCF
SCF loop      Energy           Fermi           Energy gain       Timer   <-- SCF
                               energy          per atom          (sec)   <-- SCF
------------------------------------------------------------------------ <-- SCF
Initial  -3.18711231E+003  0.00000000E+000                        46.61  <-- SCF
      1  -3.18713170E+003  9.58936878E+000   9.69910978E-003      49.27  <-- SCF
          Max force change        1.671E-006                             <-- SCF
      2  -3.18713170E+003  9.58936878E+000   4.52106845E-009      51.53  <-- SCF
          Max force change        2.446E-007                             <-- SCF
      3  -3.18713170E+003  9.58937359E+000   5.44430763E-009      53.76  <-- SCF
          Max force change        1.025E-005                             <-- SCF
      4  -3.18713170E+003  9.58937437E+000  -4.11735674E-009      56.00  <-- SCF
          Max force change        6.064E-007                             <-- SCF
------------------------------------------------------------------------ <-- SCF
 
Final energy, E             =  -3187.112353346     eV
Final free energy (E-TS)    =  -3187.131704693     eV
(energies not corrected for finite basis set)
 
NB est. 0K energy (E-0.5TS)      =  -3187.122029020     eV
 
Calculating total energy with cut-off of  700.000 eV.
------------------------------------------------------------------------ <-- SCF
SCF loop      Energy           Fermi           Energy gain       Timer   <-- SCF
                               energy          per atom          (sec)   <-- SCF
------------------------------------------------------------------------ <-- SCF
Initial  -3.18711235E+003  0.00000000E+000                        57.28  <-- SCF
      1  -3.18713175E+003  9.58937287E+000   9.69940772E-003      59.90  <-- SCF
          Max force change        8.610E-007                             <-- SCF
      2  -3.18713175E+003  9.58937287E+000   4.95068886E-009      62.12  <-- SCF
          Max force change        1.345E-007                             <-- SCF
      3  -3.18713175E+003  9.58936726E+000   4.35005168E-008      64.42  <-- SCF
          Max force change        1.438E-006                             <-- SCF
      4  -3.18713175E+003  9.58937072E+000  -5.07242109E-008      66.64  <-- SCF
          Max force change        3.142E-007                             <-- SCF
------------------------------------------------------------------------ <-- SCF
 
Final energy, E             =  -3187.112400848     eV
Final free energy (E-TS)    =  -3187.131752156     eV
(energies not corrected for finite basis set)
 
NB est. 0K energy (E-0.5TS)      =  -3187.122076502     eV
 
 For future reference: finite basis dEtot/dlog(Ecut) =      -0.006548eV
 Total energy corrected for finite basis set =   -3187.131752 eV
 
 ******************* Unconstrained Forces *******************
 *                                                          *
 *               Cartesian components (eV/A)                *
 * -------------------------------------------------------- *
 *                         x            y            z      *
 *                                                          *
 * Ti              1     -0.00000     -0.00000     -0.00000 *
 * Ti              2      0.00000      0.00000      0.00000 *
 *                                                          *
 ************************************************************
 
 ******************** Constrained Forces ********************
 *                                                          *
 *               Cartesian components (eV/A)                *
 * -------------------------------------------------------- *
 *                         x            y            z      *
 *                                                          *
 * Ti              1     -0.00000     -0.00000     -0.00000 *
 * Ti              2      0.00000      0.00000      0.00000 *
 *                                                          *
 ************************************************************
 
 ***************** Stress Tensor *****************
 *                                               *
 *          Cartesian components (GPa)           *
 * --------------------------------------------- *
 *             x             y             z     *
 *                                               *
 *  x     -3.106045     -0.000000      0.000001  *
 *  y     -0.000000     -3.106046     -0.000000  *
 *  z      0.000001     -0.000000     -3.106045  *
 *                                               *
 *  Pressure:    3.1060                          *
 *                                               *
 *************************************************
 
 Pseudo atomic calculation performed for Ti 3s2 3p6 3d2 4s2
 
 Converged in 38 iterations to a total energy of -1586.0195 eV
 
Charge spilling parameter for spin component 1 = 0.07%
 
     Atomic Populations (Mulliken)
     -----------------------------
Species          Ion     s      p      d      f     Total  Charge (e)
=====================================================================
  Ti              1     2.29   6.87   2.83   0.00  12.00    -0.00
  Ti              2     2.29   6.87   2.83   0.00  12.00     0.00
=====================================================================
 
                 Bond                   Population      Length (A)
======================================================================
              Ti 1 -- Ti 2                   0.57        2.71856
======================================================================
 
 
 A BibTeX formatted list of references used in this run has been written to 
 castep.bib
 
Initialisation time =      5.89 s
Calculation time    =     63.71 s
Finalisation time   =      0.16 s
Total time          =     69.76 s
Peak Memory Use     = 708068 kB
  
Overall parallel efficiency rating: Very good (86%)                             
  
Data was distributed by:-
k-point (32-way); efficiency rating: Very good (89%)                            
  
Parallel notes:
1) Calculation only took 69.6 s, so efficiency estimates may be inaccurate.     
 +-------------------------------------------------+
 |                                                 |
 |      CCC   AA    SSS  TTTTT  EEEEE  PPPP        |
 |     C     A  A  S       T    E      P   P       |
 |     C     AAAA   SS     T    EEE    PPPP        |
 |     C     A  A     S    T    E      P           |
 |      CCC  A  A  SSS     T    EEEEE  P           |
 |                                                 |
 +-------------------------------------------------+
 |                                                 |
 | Welcome to Academic Release CASTEP version 17.21|          
 | Ab Initio Total Energy Program                  |
 |                                                 |
 | Authors:                                        |
 | M. Segall, M. Probert, C. Pickard, P. Hasnip,   |
 | S. Clark, K. Refson, J. R. Yates, M. Payne      |
 |                                                 |
 | Contributors:                                   |
 | P. Lindan, P. Haynes, J. White, V. Milman,      |
 | N. Govind, M. Gibson, P. Tulip, V. Cocula,      |
 | B. Montanari, D. Quigley, M. Glover,            |
 | L. Bernasconi, A. Perlov, M. Plummer,           |
 | E. McNellis, J. Meyer, J. Gale, D. Jochym       |
 | J. Aarons, B. Walker, R. Gillen, D. Jones       |
 | T. Green, I. J. Bush, C. J. Armstrong,          |
 | E. J. Higgins, E. L. Brown, M. S. McFly,        |
 | J. Wilkins, B-C. Shih, P. J. P. Byrne           |
 |                                                 |
 | Copyright (c) 2000 - 2017                       |
 |                                                 |
 |     Distributed under the terms of an           |
 |     Agreement between the United Kingdom        |
 |     Car-Parrinello (UKCP) Consortium,           |
 |     Daresbury Laboratory and Accelrys, Inc.     |
 |                                                 |
 | Please cite                                     |
 |                                                 |
 |     "First principles methods using CASTEP"     |
 |                                                 |
 |         Zeitschrift fuer Kristallographie       |
 |           220(5-6) pp. 567-570 (2005)           |
 |                                                 |
 | S. J. Clark, M. D. Segall, C. J. Pickard,       |
 | P. J. Hasnip, M. J. Probert, K. Refson,         |
 | M. C. Payne                                     |
 |                                                 |
 |       in all publications arising from          |
 |              your use of CASTEP                 |
 |                                                 |
 +-------------------------------------------------+
 
 
 Compiled for linux_x86_64_ifort17 on Fri, 08 Dec 2017 17:04:03 +0000
 from code version 
 056e886bd5a1+ Castep172_branch Mon, 15 May 2017 14:45:35 +0100
 Compiler: Intel Fortran 17.0.4.196; Optimisation: fast
 MATHLIBS: Intel MKL(2017.0.3) (LAPACK version 3.7.0)
 FFT Lib : mkl
 Fundamental constants values: CODATA 2010
 
 Run started: Tue, 30 Jun 2020 00:18:23 +0100
 
 Atomic calculation performed for Ti: 1s2 2s2 2p6 3s2 3p6 3d2 4s2
 
 Converged in 78 iterations to an ae energy of -23176.516 eV
 
   ============================================================                
   | Pseudopotential Report - Date of generation 30-06-2020   |                
   ------------------------------------------------------------                
   | Element: Ti Ionic charge: 12.00 Level of theory: LDA     |                
   | Atomic Solver: Koelling-Harmon                           |                
   |                                                          |                
   |               Reference Electronic Structure             |                
   |         Orbital         Occupation         Energy        |                
   |            3s              2.000           -2.288        |                
   |            3p              6.000           -1.425        |                
   |            4s              2.000           -0.169        |                
   |            3d              2.000           -0.164        |                
   |                                                          |                
   |                 Pseudopotential Definition               |                
   |        Beta     l      e      Rc     scheme   norm       |                
   |          1      0   -2.288   1.793     qc      0         |                
   |          2      0   -0.169   1.793     qc      0         |                
   |          3      0    0.250   1.793     qc      0         |                
   |          4      1   -1.425   1.793     qc      0         |                
   |          5      1    0.250   1.793     qc      0         |                
   |          6      2   -0.164   1.793     qc      0         |                
   |          7      2    0.250   1.793     qc      0         |                
   |         loc     3    0.000   1.793     pn      0         |                
   |                                                          |                
   | Augmentation charge Rinner = 1.263                       |                
   | Partial core correction Rc = 1.263                       |                
   ------------------------------------------------------------                
   | "3|1.8|9|10|11|30U:40:31:32(qc=5.5)"                     |                
   ------------------------------------------------------------                
   |      Author: Chris J. Pickard, Cambridge University      |                
   ============================================================                
 
 Pseudo atomic calculation performed for Ti 3s2 3p6 3d2 4s2
 
 Converged in 38 iterations to a total energy of -1586.0195 eV
 
 Calculation parallelised over 32 processes.
 Data is distributed by k-point(32-way)

 ************************************ Title ************************************
 

 ***************************** General Parameters ******************************
  
 output verbosity                               : normal  (1)
 write checkpoint data to                       : castep.check
 type of calculation                            : single point energy
 stress calculation                             : on
 density difference calculation                 : off
 electron localisation func (ELF) calculation   : off
 Hirshfeld analysis                             : off
 unlimited duration calculation
 timing information                             : on
 memory usage estimate                          : on
 write final potential to formatted file        : off
 write final density to formatted file          : off
 write BibTeX reference list                    : on
 write OTFG pseudopotential files               : on
 write electrostatic potential file             : on
 write bands file                               : on
 checkpoint writing                             : off
  
 output         length unit                     : A
 output           mass unit                     : amu
 output           time unit                     : ps
 output         charge unit                     : e
 output           spin unit                     : hbar/2
 output         energy unit                     : eV
 output          force unit                     : eV/A
 output       velocity unit                     : A/ps
 output       pressure unit                     : GPa
 output     inv_length unit                     : 1/A
 output      frequency unit                     : cm-1
 output force constant unit                     : eV/A**2
 output         volume unit                     : A**3
 output   IR intensity unit                     : (D/A)**2/amu
 output         dipole unit                     : D
 output         efield unit                     : eV/A/e
 output        entropy unit                     : J/mol/K
  
 wavefunctions paging                           : none
 random number generator seed                   : randomised (1823582)
 data distribution                              : optimal for this architecture
 optimization strategy                          : maximize speed(+++)

 *********************** Exchange-Correlation Parameters ***********************
  
 using functional                               : Local Density Approximation
 relativistic treatment                         : Koelling-Harmon
 DFT+D: Semi-empirical dispersion correction    : off

 ************************* Pseudopotential Parameters **************************
  
 pseudopotential representation                 : reciprocal space
 <beta|phi> representation                      : reciprocal space
 spin-orbit coupling                            : off

 **************************** Basis Set Parameters *****************************
  
 plane wave basis set cut-off                   :   700.0000   eV
 size of standard grid                          :     1.7500
 size of   fine   grid                          :     2.0000
 size of   fine   gmax                          :    27.1093   1/A
 finite basis set correction                    : automatic
 number of sample energies                      :          3
           sample  spacing                      :     5.0000   eV

 **************************** Electronic Parameters ****************************
  
 number of  electrons                           :  24.00    
 net charge of system                           :  0.000    
 treating system as non-spin-polarized
 number of bands                                :         16

 ********************* Electronic Minimization Parameters **********************
  
 Method: Treating system as metallic with density mixing treatment of electrons,
         and number of  SD  steps               :          1
         and number of  CG  steps               :          4
  
 total energy / atom convergence tol.           : 0.1000E-06   eV
 eigen-energy convergence tolerance             : 0.1667E-07   eV
 max force / atom convergence tol.              : 0.1000E-02   eV/A
 convergence tolerance window                   :          3   cycles
 max. number of SCF cycles                      :         30
 number of fixed-spin iterations                :         10
 smearing scheme                                : Gaussian
 smearing width                                 : 0.1000       eV
 Fermi energy convergence tolerance             : 0.2721E-13   eV
 periodic dipole correction                     : NONE

 ************************** Density Mixing Parameters **************************
  
 density-mixing scheme                          : Pulay
 max. length of mixing history                  :         20
 charge density mixing amplitude                : 0.8000    
 cut-off energy for mixing                      :  700.0       eV

 *********************** Population Analysis Parameters ************************
  
 Population analysis with cutoff                :  3.000       A

 *******************************************************************************
  
 
                           -------------------------------
                                      Unit Cell
                           -------------------------------
        Real Lattice(A)                      Reciprocal Lattice(1/A)
   3.1120640   0.0000000   0.0000000        2.0189769   0.0000000   0.0000000
   0.0000000   3.1120640   0.0000000        0.0000000   2.0189769   0.0000000
   0.0000000   0.0000000   3.1120640        0.0000000   0.0000000   2.0189769
 
                       Lattice parameters(A)       Cell Angles
                    a =    3.112064          alpha =   90.000000
                    b =    3.112064          beta  =   90.000000
                    c =    3.112064          gamma =   90.000000
 
                       Current cell volume =   30.140160       A**3
                                   density =    3.176294   AMU/A**3
                                           =    5.274359     g/cm^3
 
                           -------------------------------
                                     Cell Contents
                           -------------------------------
                         Total number of ions in cell =    2
                      Total number of species in cell =    1
                        Max number of any one species =    2
 
            xxxxxxxxxxxxxxxxxxxxxxxxxxxxxxxxxxxxxxxxxxxxxxxxxxxxxxxxxxxx
            x  Element    Atom        Fractional coordinates of atoms  x
            x            Number           u          v          w      x
            x----------------------------------------------------------x
            x  Ti           1         0.000000   0.000000   0.000000   x 
            x  Ti           2         0.500000   0.500000   0.500000   x 
            xxxxxxxxxxxxxxxxxxxxxxxxxxxxxxxxxxxxxxxxxxxxxxxxxxxxxxxxxxxx
 
 
                         No user defined ionic velocities
 
                           -------------------------------
                                   Details of Species
                           -------------------------------
 
                               Mass of species in AMU
                                    Ti   47.8670000
 
                          Electric Quadrupole Moment (Barn)
                                    Ti    0.3020000 Isotope 47
 
                          Files used for pseudopotentials:
                                    Ti 3|1.8|9|10|11|30U:40:31:32(qc=5.5)
 
                           -------------------------------
                              k-Points For BZ Sampling
                           -------------------------------
                       MP grid size for SCF calculation is 17 17 17
                            with an offset of   0.000  0.000  0.000
                       Number of kpoints used =          2457
 
                           -------------------------------
                               Symmetry and Constraints
                           -------------------------------
 
                      Cell is a supercell containing 2 primitive cells
                      Maximum deviation from symmetry =  0.00000         ANG
 
                      Number of symmetry operations   =           1
                      Number of ionic constraints     =           3
                      Point group of crystal =     1: C1, 1, 1
                      Space group of crystal =   229: Im-3m, -I 4 2 3
 
             Set iprint > 1 for details on symmetry rotations/translations
 
                         Centre of mass is constrained
             Set iprint > 1 for details of linear ionic constraints
 
                         Number of cell constraints= 0
                         Cell constraints are:  1 2 3 4 5 6
 
                         External pressure/stress (GPa)
                          0.00000   0.00000   0.00000
                                    0.00000   0.00000
                                              0.00000
  
+---------------- MEMORY AND SCRATCH DISK ESTIMATES PER PROCESS --------------+
|                                                     Memory          Disk    |
| Baseline code, static data and system overhead      388.0 MB         0.0 MB |
| BLAS internal memory storage                          0.0 MB         0.0 MB |
| Model and support data                               90.6 MB         0.0 MB |
| Electronic energy minimisation requirements          57.2 MB         0.0 MB |
| Force calculation requirements                        3.5 MB         0.0 MB |
| Stress calculation requirements                       3.8 MB         0.0 MB |
|                                               ----------------------------- |
| Approx. total storage required per process          535.8 MB         0.0 MB |
|                                                                             |
| Requirements will fluctuate during execution and may exceed these estimates |
+-----------------------------------------------------------------------------+
Calculating finite basis set correction with  3 cut-off energies.
Calculating total energy with cut-off of  690.000 eV.
------------------------------------------------------------------------ <-- SCF
SCF loop      Energy           Fermi           Energy gain       Timer   <-- SCF
                               energy          per atom          (sec)   <-- SCF
------------------------------------------------------------------------ <-- SCF
Initial  -2.90183870E+003  0.00000000E+000                         8.51  <-- SCF
      1  -3.13498086E+003  1.19982102E+001   1.16571081E+002      12.83  <-- SCF
          Max force change        2.575E-001                             <-- SCF
      2  -3.18681022E+003  1.03263242E+001   2.59146761E+001      16.78  <-- SCF
          Max force change        1.403E-001                             <-- SCF
      3  -3.18733935E+003  1.02948141E+001   2.64566166E-001      20.73  <-- SCF
          Max force change        1.070E-002                             <-- SCF
      4  -3.18719075E+003  9.69181454E+000  -7.42996067E-002      24.82  <-- SCF
          Max force change        2.140E-003                             <-- SCF
      5  -3.18710734E+003  9.92074858E+000  -4.17053863E-002      29.14  <-- SCF
          Max force change        1.205E-003                             <-- SCF
      6  -3.18710768E+003  9.91039421E+000   1.69927324E-004      34.13  <-- SCF
          Max force change        7.111E-004                             <-- SCF
      7  -3.18710759E+003  9.90993560E+000  -4.52938547E-005      38.51  <-- SCF
          Max force change        6.805E-005                             <-- SCF
      8  -3.18710758E+003  9.90833771E+000  -2.47062769E-006      42.57  <-- SCF
          Max force change        3.141E-004                             <-- SCF
      9  -3.18710758E+003  9.90845115E+000   1.67907722E-008      45.93  <-- SCF
          Max force change        1.125E-004                             <-- SCF
     10  -3.18710758E+003  9.90846010E+000   1.87393386E-009      48.68  <-- SCF
          Max force change        3.223E-005                             <-- SCF
     11  -3.18710758E+003  9.90846739E+000   8.47446564E-010      51.35  <-- SCF
          Max force change        1.288E-006                             <-- SCF
------------------------------------------------------------------------ <-- SCF
 
Final energy, E             =  -3187.089596903     eV
Final free energy (E-TS)    =  -3187.107582691     eV
(energies not corrected for finite basis set)
 
NB est. 0K energy (E-0.5TS)      =  -3187.098589797     eV
 
Calculating total energy with cut-off of  695.000 eV.
------------------------------------------------------------------------ <-- SCF
SCF loop      Energy           Fermi           Energy gain       Timer   <-- SCF
                               energy          per atom          (sec)   <-- SCF
------------------------------------------------------------------------ <-- SCF
Initial  -3.18708960E+003  0.00000000E+000                        52.81  <-- SCF
      1  -3.18710763E+003  9.90846768E+000   9.01626805E-003      55.92  <-- SCF
          Max force change        3.966E-007                             <-- SCF
      2  -3.18710763E+003  9.90846768E+000   4.79891027E-009      58.56  <-- SCF
          Max force change        4.532E-007                             <-- SCF
      3  -3.18710763E+003  9.90846089E+000   3.04282234E-008      61.18  <-- SCF
          Max force change        1.229E-006                             <-- SCF
      4  -3.18710763E+003  9.90846407E+000  -3.40983650E-008      63.79  <-- SCF
          Max force change        4.987E-007                             <-- SCF
------------------------------------------------------------------------ <-- SCF
 
Final energy, E             =  -3187.089643649     eV
Final free energy (E-TS)    =  -3187.107629440     eV
(energies not corrected for finite basis set)
 
NB est. 0K energy (E-0.5TS)      =  -3187.098636544     eV
 
Calculating total energy with cut-off of  700.000 eV.
------------------------------------------------------------------------ <-- SCF
SCF loop      Energy           Fermi           Energy gain       Timer   <-- SCF
                               energy          per atom          (sec)   <-- SCF
------------------------------------------------------------------------ <-- SCF
Initial  -3.18708964E+003  0.00000000E+000                        65.28  <-- SCF
      1  -3.18710768E+003  9.90846976E+000   9.01716782E-003      68.41  <-- SCF
          Max force change        2.747E-007                             <-- SCF
      2  -3.18710768E+003  9.90846976E+000   9.32152550E-009      71.06  <-- SCF
          Max force change        3.756E-007                             <-- SCF
      3  -3.18710768E+003  9.90845802E+000   5.20351912E-007      74.87  <-- SCF
          Max force change        1.147E-006                             <-- SCF
      4  -3.18710768E+003  9.90846122E+000  -5.73579599E-007      78.56  <-- SCF
          Max force change        2.793E-007                             <-- SCF
      5  -3.18710768E+003  9.90847030E+000   1.59067828E-009      81.25  <-- SCF
          Max force change        4.660E-007                             <-- SCF
      6  -3.18710768E+003  9.90846761E+000   3.86503692E-010      83.90  <-- SCF
          Max force change        2.894E-007                             <-- SCF
------------------------------------------------------------------------ <-- SCF
 
Final energy, E             =  -3187.089692041     eV
Final free energy (E-TS)    =  -3187.107677888     eV
(energies not corrected for finite basis set)
 
NB est. 0K energy (E-0.5TS)      =  -3187.098684964     eV
 
 For future reference: finite basis dEtot/dlog(Ecut) =      -0.006618eV
 Total energy corrected for finite basis set =   -3187.107678 eV
 
 ******************* Unconstrained Forces *******************
 *                                                          *
 *               Cartesian components (eV/A)                *
 * -------------------------------------------------------- *
 *                         x            y            z      *
 *                                                          *
 * Ti              1      0.00000     -0.00000     -0.00000 *
 * Ti              2     -0.00000      0.00000      0.00000 *
 *                                                          *
 ************************************************************
 
 ******************** Constrained Forces ********************
 *                                                          *
 *               Cartesian components (eV/A)                *
 * -------------------------------------------------------- *
 *                         x            y            z      *
 *                                                          *
 * Ti              1      0.00000     -0.00000     -0.00000 *
 * Ti              2     -0.00000      0.00000      0.00000 *
 *                                                          *
 ************************************************************
 
 ***************** Stress Tensor *****************
 *                                               *
 *          Cartesian components (GPa)           *
 * --------------------------------------------- *
 *             x             y             z     *
 *                                               *
 *  x     -6.603923      0.000001     -0.000000  *
 *  y      0.000001     -6.603923     -0.000000  *
 *  z     -0.000000     -0.000000     -6.603922  *
 *                                               *
 *  Pressure:    6.6039                          *
 *                                               *
 *************************************************
 
 Pseudo atomic calculation performed for Ti 3s2 3p6 3d2 4s2
 
 Converged in 38 iterations to a total energy of -1586.0195 eV
 
Charge spilling parameter for spin component 1 = 0.07%
 
     Atomic Populations (Mulliken)
     -----------------------------
Species          Ion     s      p      d      f     Total  Charge (e)
=====================================================================
  Ti              1     2.28   6.87   2.86   0.00  12.00     0.00
  Ti              2     2.28   6.87   2.86   0.00  12.00    -0.00
=====================================================================
 
                 Bond                   Population      Length (A)
======================================================================
              Ti 1 -- Ti 2                   0.40        2.69513
======================================================================
 
 
 A BibTeX formatted list of references used in this run has been written to 
 castep.bib
 
Initialisation time =      6.25 s
Calculation time    =     80.64 s
Finalisation time   =      0.45 s
Total time          =     87.34 s
Peak Memory Use     = 702304 kB
  
Overall parallel efficiency rating: Very good (87%)                             
  
Data was distributed by:-
k-point (32-way); efficiency rating: Excellent (90%)                            
  
Parallel notes:
1) Calculation only took 86.9 s, so efficiency estimates may be inaccurate.     
 +-------------------------------------------------+
 |                                                 |
 |      CCC   AA    SSS  TTTTT  EEEEE  PPPP        |
 |     C     A  A  S       T    E      P   P       |
 |     C     AAAA   SS     T    EEE    PPPP        |
 |     C     A  A     S    T    E      P           |
 |      CCC  A  A  SSS     T    EEEEE  P           |
 |                                                 |
 +-------------------------------------------------+
 |                                                 |
 | Welcome to Academic Release CASTEP version 17.21|          
 | Ab Initio Total Energy Program                  |
 |                                                 |
 | Authors:                                        |
 | M. Segall, M. Probert, C. Pickard, P. Hasnip,   |
 | S. Clark, K. Refson, J. R. Yates, M. Payne      |
 |                                                 |
 | Contributors:                                   |
 | P. Lindan, P. Haynes, J. White, V. Milman,      |
 | N. Govind, M. Gibson, P. Tulip, V. Cocula,      |
 | B. Montanari, D. Quigley, M. Glover,            |
 | L. Bernasconi, A. Perlov, M. Plummer,           |
 | E. McNellis, J. Meyer, J. Gale, D. Jochym       |
 | J. Aarons, B. Walker, R. Gillen, D. Jones       |
 | T. Green, I. J. Bush, C. J. Armstrong,          |
 | E. J. Higgins, E. L. Brown, M. S. McFly,        |
 | J. Wilkins, B-C. Shih, P. J. P. Byrne           |
 |                                                 |
 | Copyright (c) 2000 - 2017                       |
 |                                                 |
 |     Distributed under the terms of an           |
 |     Agreement between the United Kingdom        |
 |     Car-Parrinello (UKCP) Consortium,           |
 |     Daresbury Laboratory and Accelrys, Inc.     |
 |                                                 |
 | Please cite                                     |
 |                                                 |
 |     "First principles methods using CASTEP"     |
 |                                                 |
 |         Zeitschrift fuer Kristallographie       |
 |           220(5-6) pp. 567-570 (2005)           |
 |                                                 |
 | S. J. Clark, M. D. Segall, C. J. Pickard,       |
 | P. J. Hasnip, M. J. Probert, K. Refson,         |
 | M. C. Payne                                     |
 |                                                 |
 |       in all publications arising from          |
 |              your use of CASTEP                 |
 |                                                 |
 +-------------------------------------------------+
 
 
 Compiled for linux_x86_64_ifort17 on Fri, 08 Dec 2017 17:04:03 +0000
 from code version 
 056e886bd5a1+ Castep172_branch Mon, 15 May 2017 14:45:35 +0100
 Compiler: Intel Fortran 17.0.4.196; Optimisation: fast
 MATHLIBS: Intel MKL(2017.0.3) (LAPACK version 3.7.0)
 FFT Lib : mkl
 Fundamental constants values: CODATA 2010
 
 Run started: Tue, 30 Jun 2020 00:19:51 +0100
 
 Atomic calculation performed for Ti: 1s2 2s2 2p6 3s2 3p6 3d2 4s2
 
 Converged in 78 iterations to an ae energy of -23176.516 eV
 
   ============================================================                
   | Pseudopotential Report - Date of generation 30-06-2020   |                
   ------------------------------------------------------------                
   | Element: Ti Ionic charge: 12.00 Level of theory: LDA     |                
   | Atomic Solver: Koelling-Harmon                           |                
   |                                                          |                
   |               Reference Electronic Structure             |                
   |         Orbital         Occupation         Energy        |                
   |            3s              2.000           -2.288        |                
   |            3p              6.000           -1.425        |                
   |            4s              2.000           -0.169        |                
   |            3d              2.000           -0.164        |                
   |                                                          |                
   |                 Pseudopotential Definition               |                
   |        Beta     l      e      Rc     scheme   norm       |                
   |          1      0   -2.288   1.793     qc      0         |                
   |          2      0   -0.169   1.793     qc      0         |                
   |          3      0    0.250   1.793     qc      0         |                
   |          4      1   -1.425   1.793     qc      0         |                
   |          5      1    0.250   1.793     qc      0         |                
   |          6      2   -0.164   1.793     qc      0         |                
   |          7      2    0.250   1.793     qc      0         |                
[...]
   |         loc     3    0.000   1.793     pn      0         |                
   |                                                          |                
   | Augmentation charge Rinner = 1.263                       |                
   | Partial core correction Rc = 1.263                       |                
   ------------------------------------------------------------                
   | "3|1.8|9|10|11|30U:40:31:32(qc=5.5)"                     |                
   ------------------------------------------------------------                
   |      Author: Chris J. Pickard, Cambridge University      |                
   ============================================================                
 
 Pseudo atomic calculation performed for Ti 3s2 3p6 3d2 4s2
 
 Converged in 38 iterations to a total energy of -1586.0195 eV
 
 Calculation parallelised over 32 processes.
 Data is distributed by k-point(32-way)

 ************************************ Title ************************************
 

 ***************************** General Parameters ******************************
  
 output verbosity                               : normal  (1)
 write checkpoint data to                       : castep.check
 type of calculation                            : single point energy
 stress calculation                             : on
 density difference calculation                 : off
 electron localisation func (ELF) calculation   : off
 Hirshfeld analysis                             : off
 unlimited duration calculation
 timing information                             : on
 memory usage estimate                          : on
 write final potential to formatted file        : off
 write final density to formatted file          : off
 write BibTeX reference list                    : on
 write OTFG pseudopotential files               : on
 write electrostatic potential file             : on
 write bands file                               : on
 checkpoint writing                             : off
  
 output         length unit                     : A
 output           mass unit                     : amu
 output           time unit                     : ps
 output         charge unit                     : e
 output           spin unit                     : hbar/2
 output         energy unit                     : eV
 output          force unit                     : eV/A
 output       velocity unit                     : A/ps
 output       pressure unit                     : GPa
 output     inv_length unit                     : 1/A
 output      frequency unit                     : cm-1
 output force constant unit                     : eV/A**2
 output         volume unit                     : A**3
 output   IR intensity unit                     : (D/A)**2/amu
 output         dipole unit                     : D
 output         efield unit                     : eV/A/e
 output        entropy unit                     : J/mol/K
  
 wavefunctions paging                           : none
 random number generator seed                   : randomised (4948345)
 data distribution                              : optimal for this architecture
 optimization strategy                          : maximize speed(+++)

 *********************** Exchange-Correlation Parameters ***********************
  
 using functional                               : Local Density Approximation
 relativistic treatment                         : Koelling-Harmon
 DFT+D: Semi-empirical dispersion correction    : off

 ************************* Pseudopotential Parameters **************************
  
 pseudopotential representation                 : reciprocal space
 <beta|phi> representation                      : reciprocal space
 spin-orbit coupling                            : off

 **************************** Basis Set Parameters *****************************
  
 plane wave basis set cut-off                   :   700.0000   eV
 size of standard grid                          :     1.7500
 size of   fine   grid                          :     2.0000
 size of   fine   gmax                          :    27.1093   1/A
 finite basis set correction                    : automatic
 number of sample energies                      :          3
           sample  spacing                      :     5.0000   eV

 **************************** Electronic Parameters ****************************
  
 number of  electrons                           :  24.00    
 net charge of system                           :  0.000    
 treating system as non-spin-polarized
 number of bands                                :         16

 ********************* Electronic Minimization Parameters **********************
  
 Method: Treating system as metallic with density mixing treatment of electrons,
         and number of  SD  steps               :          1
         and number of  CG  steps               :          4
  
 total energy / atom convergence tol.           : 0.1000E-06   eV
 eigen-energy convergence tolerance             : 0.1667E-07   eV
 max force / atom convergence tol.              : 0.1000E-02   eV/A
 convergence tolerance window                   :          3   cycles
 max. number of SCF cycles                      :         30
 number of fixed-spin iterations                :         10
 smearing scheme                                : Gaussian
 smearing width                                 : 0.1000       eV
 Fermi energy convergence tolerance             : 0.2721E-13   eV
 periodic dipole correction                     : NONE

 ************************** Density Mixing Parameters **************************
  
 density-mixing scheme                          : Pulay
 max. length of mixing history                  :         20
 charge density mixing amplitude                : 0.8000    
 cut-off energy for mixing                      :  700.0       eV

 *********************** Population Analysis Parameters ************************
  
 Population analysis with cutoff                :  3.000       A

 *******************************************************************************
  
 
                           -------------------------------
                                      Unit Cell
                           -------------------------------
        Real Lattice(A)                      Reciprocal Lattice(1/A)
   3.2290450   0.0000000   0.0000000        1.9458339   0.0000000   0.0000000
   0.0000000   3.1657310   0.0316570        0.0000000   1.9849487  -0.0198493
   0.0000000   0.0316570   3.1657310        0.0000000  -0.0198493   1.9849487
 
                       Lattice parameters(A)       Cell Angles
                    a =    3.229045          alpha =   88.854134
                    b =    3.165889          beta  =   90.000000
                    c =    3.165889          gamma =   90.000000
 
                       Current cell volume =   32.357778       A**3
                                   density =    2.958609   AMU/A**3
                                           =    4.912885     g/cm^3
 
                           -------------------------------
                                     Cell Contents
                           -------------------------------
                         Total number of ions in cell =    2
                      Total number of species in cell =    1
                        Max number of any one species =    2
 
            xxxxxxxxxxxxxxxxxxxxxxxxxxxxxxxxxxxxxxxxxxxxxxxxxxxxxxxxxxxx
            x  Element    Atom        Fractional coordinates of atoms  x
            x            Number           u          v          w      x
            x----------------------------------------------------------x
            x  Ti           1         0.000000   0.000000   0.000000   x 
            x  Ti           2         0.500000   0.500000   0.500000   x 
            xxxxxxxxxxxxxxxxxxxxxxxxxxxxxxxxxxxxxxxxxxxxxxxxxxxxxxxxxxxx
 
 
                         No user defined ionic velocities
 
                           -------------------------------
                                   Details of Species
                           -------------------------------
 
                               Mass of species in AMU
                                    Ti   47.8670000
 
                          Electric Quadrupole Moment (Barn)
                                    Ti    0.3020000 Isotope 47
 
                          Files used for pseudopotentials:
                                    Ti 3|1.8|9|10|11|30U:40:31:32(qc=5.5)
 
                           -------------------------------
                              k-Points For BZ Sampling
                           -------------------------------
                       MP grid size for SCF calculation is 16 16 16
                            with an offset of   0.000  0.000  0.000
                       Number of kpoints used =          2048
 
                           -------------------------------
                               Symmetry and Constraints
                           -------------------------------
 
                      Cell is a supercell containing 2 primitive cells
                      Maximum deviation from symmetry =  0.00000         ANG
 
                      Number of symmetry operations   =           1
                      Number of ionic constraints     =           3
                      Point group of crystal =     1: C1, 1, 1
                      Space group of crystal =    69: Fmmm, -F 2 2
 
             Set iprint > 1 for details on symmetry rotations/translations
 
                         Centre of mass is constrained
             Set iprint > 1 for details of linear ionic constraints
 
                         Number of cell constraints= 0
                         Cell constraints are:  1 2 3 4 5 6
 
                         External pressure/stress (GPa)
                          0.00000   0.00000   0.00000
                                    0.00000   0.00000
                                              0.00000
  
+---------------- MEMORY AND SCRATCH DISK ESTIMATES PER PROCESS --------------+
|                                                     Memory          Disk    |
| Baseline code, static data and system overhead      388.0 MB         0.0 MB |
| BLAS internal memory storage                          0.0 MB         0.0 MB |
| Model and support data                               98.7 MB         0.0 MB |
| Electronic energy minimisation requirements          51.2 MB         0.0 MB |
| Force calculation requirements                        4.6 MB         0.0 MB |
| Stress calculation requirements                       5.0 MB         0.0 MB |
|                                               ----------------------------- |
| Approx. total storage required per process          538.0 MB         0.0 MB |
|                                                                             |
| Requirements will fluctuate during execution and may exceed these estimates |
+-----------------------------------------------------------------------------+
Calculating finite basis set correction with  3 cut-off energies.
Calculating total energy with cut-off of  690.000 eV.
------------------------------------------------------------------------ <-- SCF
SCF loop      Energy           Fermi           Energy gain       Timer   <-- SCF
                               energy          per atom          (sec)   <-- SCF
------------------------------------------------------------------------ <-- SCF
Initial  -2.89644343E+003  0.00000000E+000                         8.45  <-- SCF
      1  -3.13442111E+003  1.12392925E+001   1.18988837E+002      12.41  <-- SCF
          Max force change        8.945E-002                             <-- SCF
      2  -3.18678381E+003  9.51057298E+000   2.61813516E+001      15.96  <-- SCF
          Max force change        7.408E-002                             <-- SCF
      3  -3.18739090E+003  9.47107034E+000   3.03543509E-001      19.72  <-- SCF
          Max force change        1.817E-002                             <-- SCF
      4  -3.18723991E+003  8.81083977E+000  -7.54937467E-002      23.50  <-- SCF
          Max force change        7.537E-003                             <-- SCF
      5  -3.18713301E+003  9.07365340E+000  -5.34518193E-002      27.49  <-- SCF
          Max force change        2.866E-003                             <-- SCF
      6  -3.18713338E+003  9.06125447E+000   1.88120110E-004      32.05  <-- SCF
          Max force change        2.109E-003                             <-- SCF
      7  -3.18713334E+003  9.06072730E+000  -2.16851038E-005      36.19  <-- SCF
          Max force change        2.780E-004                             <-- SCF
      8  -3.18713333E+003  9.05898171E+000  -3.62641101E-006      40.26  <-- SCF
          Max force change        9.541E-004                             <-- SCF
      9  -3.18713333E+003  9.05907195E+000   3.22590405E-008      43.18  <-- SCF
          Max force change        3.375E-004                             <-- SCF
     10  -3.18713333E+003  9.05910641E+000   2.62180593E-010      45.79  <-- SCF
          Max force change        6.737E-005                             <-- SCF
     11  -3.18713333E+003  9.05911210E+000   8.32172031E-010      48.34  <-- SCF
          Max force change        6.262E-006                             <-- SCF
------------------------------------------------------------------------ <-- SCF
 
Final energy, E             =  -3187.112344943     eV
Final free energy (E-TS)    =  -3187.133333598     eV
(energies not corrected for finite basis set)
 
NB est. 0K energy (E-0.5TS)      =  -3187.122839271     eV
 
Calculating total energy with cut-off of  695.000 eV.
------------------------------------------------------------------------ <-- SCF
SCF loop      Energy           Fermi           Energy gain       Timer   <-- SCF
                               energy          per atom          (sec)   <-- SCF
------------------------------------------------------------------------ <-- SCF
Initial  -3.18711234E+003  0.00000000E+000                        49.77  <-- SCF
      1  -3.18713338E+003  9.05910509E+000   1.05178787E-002      52.59  <-- SCF
          Max force change        9.658E-007                             <-- SCF
      2  -3.18713338E+003  9.05910509E+000   4.62586334E-009      55.12  <-- SCF
          Max force change        5.885E-008                             <-- SCF
      3  -3.18713338E+003  9.05910059E+000   4.27841605E-009      57.59  <-- SCF
          Max force change        5.677E-006                             <-- SCF
      4  -3.18713338E+003  9.05910380E+000  -2.61426534E-009      60.06  <-- SCF
          Max force change        4.608E-007                             <-- SCF
------------------------------------------------------------------------ <-- SCF
 
Final energy, E             =  -3187.112392064     eV
Final free energy (E-TS)    =  -3187.133380713     eV
(energies not corrected for finite basis set)
 
NB est. 0K energy (E-0.5TS)      =  -3187.122886389     eV
 
Calculating total energy with cut-off of  700.000 eV.
------------------------------------------------------------------------ <-- SCF
SCF loop      Energy           Fermi           Energy gain       Timer   <-- SCF
                               energy          per atom          (sec)   <-- SCF
------------------------------------------------------------------------ <-- SCF
Initial  -3.18711239E+003  0.00000000E+000                        61.49  <-- SCF
      1  -3.18713343E+003  9.05910808E+000   1.05180443E-002      64.31  <-- SCF
          Max force change        7.494E-007                             <-- SCF
      2  -3.18713343E+003  9.05910808E+000   4.42072056E-009      66.77  <-- SCF
          Max force change        5.933E-008                             <-- SCF
      3  -3.18713343E+003  9.05909751E+000   7.24322226E-009      69.23  <-- SCF
          Max force change        8.008E-007                             <-- SCF
      4  -3.18713343E+003  9.05910199E+000  -6.46460777E-009      71.67  <-- SCF
          Max force change        1.837E-007                             <-- SCF
------------------------------------------------------------------------ <-- SCF
 
Final energy, E             =  -3187.112439553     eV
Final free energy (E-TS)    =  -3187.133428163     eV
(energies not corrected for finite basis set)
 
NB est. 0K energy (E-0.5TS)      =  -3187.122933858     eV
 
 For future reference: finite basis dEtot/dlog(Ecut) =      -0.006573eV
 Total energy corrected for finite basis set =   -3187.133429 eV
 
 ******************* Unconstrained Forces *******************
 *                                                          *
 *               Cartesian components (eV/A)                *
 * -------------------------------------------------------- *
 *                         x            y            z      *
 *                                                          *
 * Ti              1      0.00000     -0.00000     -0.00000 *
 * Ti              2     -0.00000      0.00000      0.00000 *
 *                                                          *
 ************************************************************
 
 ******************** Constrained Forces ********************
 *                                                          *
 *               Cartesian components (eV/A)                *
 * -------------------------------------------------------- *
 *                         x            y            z      *
 *                                                          *
 * Ti              1      0.00000     -0.00000     -0.00000 *
 * Ti              2     -0.00000      0.00000      0.00000 *
 *                                                          *
 ************************************************************
 
 ***************** Stress Tensor *****************
 *                                               *
 *          Cartesian components (GPa)           *
 * --------------------------------------------- *
 *             x             y             z     *
 *                                               *
 *  x      2.156612      0.000000     -0.000000  *
 *  y      0.000000      2.427138      0.643987  *
 *  z     -0.000000      0.643987      2.427140  *
 *                                               *
 *  Pressure:   -2.3370                          *
 *                                               *
 *************************************************
 
 Pseudo atomic calculation performed for Ti 3s2 3p6 3d2 4s2
 
 Converged in 38 iterations to a total energy of -1586.0195 eV
 
Charge spilling parameter for spin component 1 = 0.07%
 
     Atomic Populations (Mulliken)
     -----------------------------
Species          Ion     s      p      d      f     Total  Charge (e)
=====================================================================
  Ti              1     2.31   6.88   2.80   0.00  12.00     0.00
  Ti              2     2.31   6.88   2.80   0.00  12.00    -0.00
=====================================================================
 
                 Bond                   Population      Length (A)
======================================================================
              Ti 1 -- Ti 2                   0.82        2.74188
======================================================================
 
 
 A BibTeX formatted list of references used in this run has been written to 
 castep.bib
 
Initialisation time =      6.04 s
Calculation time    =     68.79 s
Finalisation time   =      0.19 s
Total time          =     75.02 s
Peak Memory Use     = 711936 kB
  
Overall parallel efficiency rating: Very good (87%)                             
  
Data was distributed by:-
k-point (32-way); efficiency rating: Excellent (90%)                            
  
Parallel notes:
1) Calculation only took 74.8 s, so efficiency estimates may be inaccurate.     
