 +-------------------------------------------------+
 |                                                 |
 |      CCC   AA    SSS  TTTTT  EEEEE  PPPP        |
 |     C     A  A  S       T    E      P   P       |
 |     C     AAAA   SS     T    EEE    PPPP        |
 |     C     A  A     S    T    E      P           |
 |      CCC  A  A  SSS     T    EEEEE  P           |
 |                                                 |
 +-------------------------------------------------+
 |                                                 |
 | Welcome to Academic Release CASTEP version 17.21|          
 | Ab Initio Total Energy Program                  |
 |                                                 |
 | Authors:                                        |
 | M. Segall, M. Probert, C. Pickard, P. Hasnip,   |
 | S. Clark, K. Refson, J. R. Yates, M. Payne      |
 |                                                 |
 | Contributors:                                   |
 | P. Lindan, P. Haynes, J. White, V. Milman,      |
 | N. Govind, M. Gibson, P. Tulip, V. Cocula,      |
 | B. Montanari, D. Quigley, M. Glover,            |
 | L. Bernasconi, A. Perlov, M. Plummer,           |
 | E. McNellis, J. Meyer, J. Gale, D. Jochym       |
 | J. Aarons, B. Walker, R. Gillen, D. Jones       |
 | T. Green, I. J. Bush, C. J. Armstrong,          |
 | E. J. Higgins, E. L. Brown, M. S. McFly,        |
 | J. Wilkins, B-C. Shih, P. J. P. Byrne           |
 |                                                 |
 | Copyright (c) 2000 - 2017                       |
 |                                                 |
 |     Distributed under the terms of an           |
 |     Agreement between the United Kingdom        |
 |     Car-Parrinello (UKCP) Consortium,           |
 |     Daresbury Laboratory and Accelrys, Inc.     |
 |                                                 |
 | Please cite                                     |
 |                                                 |
 |     "First principles methods using CASTEP"     |
 |                                                 |
 |         Zeitschrift fuer Kristallographie       |
 |           220(5-6) pp. 567-570 (2005)           |
 |                                                 |
 | S. J. Clark, M. D. Segall, C. J. Pickard,       |
 | P. J. Hasnip, M. J. Probert, K. Refson,         |
 | M. C. Payne                                     |
 |                                                 |
 |       in all publications arising from          |
 |              your use of CASTEP                 |
 |                                                 |
 +-------------------------------------------------+


 Compiled for linux_x86_64_gfortran6.0-XT on Fri, 21 Jul 2017 10:20:05 +0100
 from code version 056e886bd5a1+ Castep172_branch Mon, 15 May 2017 14:45:35 +0100
 Compiler: GNU Fortran 6.3.0; Optimisation: fast
 MATHLIBS: Intel MKL(2017.0.0) (LAPACK version 3.6.0)
 FFT Lib : fftw3 version commercial-fftw-3.3.4-sse2-avx
 Fundamental constants values: CODATA 2010

 Run started: Thu, 31 Oct 2019 12:52:12 +0000

 Atomic calculation performed for Al: 1s2 2s2 2p6 3s2 3p1

 Converged in 55 iterations to an ae energy of -6578.725 eV

   ============================================================                
   | Pseudopotential Report - Date of generation 31-10-2019   |                
   ------------------------------------------------------------                
   | Element: Al Ionic charge:  3.00 Level of theory: LDA     |                
   | Atomic Solver: Koelling-Harmon                           |                
   |                                                          |                
   |               Reference Electronic Structure             |                
   |         Orbital         Occupation         Energy        |                
   |            3s              2.000           -0.288        |                
   |            3p              1.000           -0.102        |                
   |                                                          |                
   |                 Pseudopotential Definition               |                
   |        Beta     l      e      Rc     scheme   norm       |                
   |          1      0   -0.288   2.192     qc      0         |                
   |          2      0    0.250   2.192     qc      0         |                
   |          3      1   -0.102   2.192     qc      0         |                
   |          4      1    0.250   2.192     qc      0         |                
   |          5      2    0.000   2.000     qc      0         |                
   |          6      2    0.250   2.000     qc      0         |                
   |         loc     3    0.000   2.192     pn      0         |                
   |                                                          |                
   | Augmentation charge Rinner = 1.398                       |                
   | Partial core correction Rc = 1.398                       |                
   ------------------------------------------------------------                
   | "3|2.2|2.2|1.4|4|5|5|30:31:32U2U2"                       |                
   ------------------------------------------------------------                
   |      Author: Chris J. Pickard, Cambridge University      |                
   ============================================================                

 Pseudo atomic calculation performed for Al 3s2 3p1

 Converged in 15 iterations to a total energy of -105.5952 eV

 Calculation parallelised over 48 processes.
 Data is distributed by k-point(48-way)

 ************************************ Title ************************************
 

 ***************************** General Parameters ******************************
  
 output verbosity                               : normal  (1)
 write checkpoint data to                       : castep.check
 type of calculation                            : single point energy
 stress calculation                             : on
 density difference calculation                 : off
 electron localisation func (ELF) calculation   : off
 Hirshfeld analysis                             : off
 unlimited duration calculation
 timing information                             : on
 memory usage estimate                          : on
 write final potential to formatted file        : off
 write final density to formatted file          : off
 write BibTeX reference list                    : on
 write OTFG pseudopotential files               : on
 write electrostatic potential file             : on
 write bands file                               : on
 checkpoint writing                             : off
  
 output         length unit                     : A
 output           mass unit                     : amu
 output           time unit                     : ps
 output         charge unit                     : e
 output           spin unit                     : hbar/2
 output         energy unit                     : eV
 output          force unit                     : eV/A
 output       velocity unit                     : A/ps
 output       pressure unit                     : GPa
 output     inv_length unit                     : 1/A
 output      frequency unit                     : cm-1
 output force constant unit                     : eV/A**2
 output         volume unit                     : A**3
 output   IR intensity unit                     : (D/A)**2/amu
 output         dipole unit                     : D
 output         efield unit                     : eV/A/e
 output        entropy unit                     : J/mol/K
  
 wavefunctions paging                           : none
 random number generator seed                   : randomised (125212551)
 data distribution                              : optimal for this architecture
 optimization strategy                          : balance speed and memory

 *********************** Exchange-Correlation Parameters ***********************
  
 using functional                               : Local Density Approximation
 relativistic treatment                         : Koelling-Harmon
 DFT+D: Semi-empirical dispersion correction    : off

 ************************* Pseudopotential Parameters **************************
  
 pseudopotential representation                 : reciprocal space
 <beta|phi> representation                      : reciprocal space
 spin-orbit coupling                            : off

 **************************** Basis Set Parameters *****************************
  
 plane wave basis set cut-off                   :   600.0000   eV
 size of standard grid                          :     1.7500
 size of   fine   gmax                          :    21.9610   1/A
 finite basis set correction                    : automatic
 number of sample energies                      :          3
           sample  spacing                      :     5.0000   eV

 **************************** Electronic Parameters ****************************
  
 number of  electrons                           :  12.00    
 net charge of system                           :  0.000    
 treating system as non-spin-polarized
 number of bands                                :         10

 ********************* Electronic Minimization Parameters **********************
  
 Method: Treating system as metallic with density mixing treatment of electrons,
         and number of  SD  steps               :          1
         and number of  CG  steps               :          4
  
 total energy / atom convergence tol.           : 0.1000E-04   eV
 eigen-energy convergence tolerance             : 0.1000E-05   eV
 max force / atom convergence tol.              : ignored
 convergence tolerance window                   :          3   cycles
 max. number of SCF cycles                      :        250
 number of fixed-spin iterations                :         10
 smearing scheme                                : Gaussian
 smearing width                                 : 0.1000       eV
 Fermi energy convergence tolerance             : 0.2721E-13   eV
 periodic dipole correction                     : NONE

 ************************** Density Mixing Parameters **************************
  
 density-mixing scheme                          : Pulay
 max. length of mixing history                  :         20
 charge density mixing amplitude                : 0.8000    
 cut-off energy for mixing                      :  600.0       eV

 *********************** Population Analysis Parameters ************************
  
 Population analysis with cutoff                :  3.000       A

 *******************************************************************************
  

                           -------------------------------
                                      Unit Cell
                           -------------------------------
        Real Lattice(A)                      Reciprocal Lattice(1/A)
   4.0000000   0.0000000   0.0000000        1.5707963   0.0000000   0.0000000
   0.0000000   4.0000000   0.0000000        0.0000000   1.5707963   0.0000000
   0.0000000   0.0000000   4.0000000        0.0000000   0.0000000   1.5707963

                       Lattice parameters(A)       Cell Angles
                    a =    4.000000          alpha =   90.000000
                    b =    4.000000          beta  =   90.000000
                    c =    4.000000          gamma =   90.000000

                       Current cell volume =   64.000000       A**3
                                   density =    1.686346   AMU/A**3
                                           =    2.800244     g/cm^3

                           -------------------------------
                                     Cell Contents
                           -------------------------------
                         Total number of ions in cell =    4
                      Total number of species in cell =    1
                        Max number of any one species =    4

            xxxxxxxxxxxxxxxxxxxxxxxxxxxxxxxxxxxxxxxxxxxxxxxxxxxxxxxxxxxx
            x  Element    Atom        Fractional coordinates of atoms  x
            x            Number           u          v          w      x
            x----------------------------------------------------------x
            x  Al           1         0.000000   0.000000   0.000000   x 
            x  Al           2         0.500000   0.500000   0.000000   x 
            x  Al           3         0.500000   0.000000   0.500000   x 
            x  Al           4         0.000000   0.500000   0.500000   x 
            xxxxxxxxxxxxxxxxxxxxxxxxxxxxxxxxxxxxxxxxxxxxxxxxxxxxxxxxxxxx


                         No user defined ionic velocities

                           -------------------------------
                                   Details of Species
                           -------------------------------

                               Mass of species in AMU
                                    Al   26.9815400

                          Electric Quadrupole Moment (Barn)
                                    Al    0.1466000 Isotope 27

                          Files used for pseudopotentials:
                                    Al 3|2.2|2.2|1.4|4|5|5|30:31:32U2U2

                           -------------------------------
                              k-Points For BZ Sampling
                           -------------------------------
                       MP grid size for SCF calculation is  7  7  7
                            with an offset of   0.000  0.000  0.000
                       Number of kpoints used =           172

                           -------------------------------
                               Symmetry and Constraints
                           -------------------------------

                      Cell is a supercell containing 4 primitive cells
                      Maximum deviation from symmetry =  0.00000         ANG

                      Number of symmetry operations   =           1
                      Number of ionic constraints     =           3
                      Point group of crystal =     1: C1, 1, 1
                      Space group of crystal =   225: Fm-3m, -F 4 2 3

             Set iprint > 1 for details on symmetry rotations/translations

                         Centre of mass is constrained
             Set iprint > 1 for details of linear ionic constraints

                         Number of cell constraints= 0
                         Cell constraints are:  1 2 3 4 5 6

                         External pressure/stress (GPa)
                          0.00000   0.00000   0.00000
                                    0.00000   0.00000
                                              0.00000
  
+---------------- MEMORY AND SCRATCH DISK ESTIMATES PER PROCESS --------------+
|                                                     Memory          Disk    |
| Baseline code, static data and system overhead      172.0 MB         0.0 MB |
| BLAS internal memory storage                          0.0 MB         0.0 MB |
| Model and support data                               27.0 MB        36.5 MB |
| Electronic energy minimisation requirements          10.5 MB         0.0 MB |
| Force calculation requirements                        3.9 MB         0.0 MB |
| Stress calculation requirements                       4.3 MB         0.0 MB |
|                                               ----------------------------- |
| Approx. total storage required per process          209.5 MB        36.5 MB |
|                                                                             |
| Requirements will fluctuate during execution and may exceed these estimates |
+-----------------------------------------------------------------------------+
Calculating finite basis set correction with  3 cut-off energies.
Calculating total energy with cut-off of  590.000 eV.
------------------------------------------------------------------------ <-- SCF
SCF loop      Energy           Fermi           Energy gain       Timer   <-- SCF
                               energy          per atom          (sec)   <-- SCF
------------------------------------------------------------------------ <-- SCF
Initial   8.73736097E+001  0.00000000E+000                         7.40  <-- SCF
      1  -4.03252457E+002  8.48362153E+000   1.22656517E+002       7.81  <-- SCF
      2  -4.37609057E+002  5.68305530E+000   8.58915002E+000       8.14  <-- SCF
      3  -4.39240108E+002  5.45757375E+000   4.07762537E-001       8.47  <-- SCF
      4  -4.39158005E+002  5.42300003E+000  -2.05257289E-002       8.91  <-- SCF
      5  -4.39146670E+002  5.40986099E+000  -2.83368917E-003       9.34  <-- SCF
      6  -4.39146665E+002  5.40963852E+000  -1.21826976E-006       9.71  <-- SCF
      7  -4.39146665E+002  5.40964219E+000   2.95081261E-008      10.04  <-- SCF
------------------------------------------------------------------------ <-- SCF
 
Final energy, E             =  -439.1328831352     eV
Final free energy (E-TS)    =  -439.1466651697     eV
(energies not corrected for finite basis set)
 
NB est. 0K energy (E-0.5TS)      =  -439.1397741524     eV
 
Calculating total energy with cut-off of  595.000 eV.
------------------------------------------------------------------------ <-- SCF
SCF loop      Energy           Fermi           Energy gain       Timer   <-- SCF
                               energy          per atom          (sec)   <-- SCF
------------------------------------------------------------------------ <-- SCF
Initial  -4.39132883E+002  0.00000000E+000                        10.35  <-- SCF
      1  -4.39146665E+002  5.40964498E+000   3.44557013E-003      10.61  <-- SCF
      2  -4.39146665E+002  5.40964497E+000   6.66085652E-010      10.93  <-- SCF
      3  -4.39146665E+002  5.40964673E+000   6.30799547E-012      11.24  <-- SCF
      4  -4.39146665E+002  5.40964832E+000  -5.75211847E-012      11.56  <-- SCF
------------------------------------------------------------------------ <-- SCF
 
Final energy, E             =  -439.1328833624     eV
Final free energy (E-TS)    =  -439.1466654195     eV
(energies not corrected for finite basis set)
 
NB est. 0K energy (E-0.5TS)      =  -439.1397743909     eV
 
Calculating total energy with cut-off of  600.000 eV.
------------------------------------------------------------------------ <-- SCF
SCF loop      Energy           Fermi           Energy gain       Timer   <-- SCF
                               energy          per atom          (sec)   <-- SCF
------------------------------------------------------------------------ <-- SCF
Initial  -4.39132883E+002  0.00000000E+000                        11.87  <-- SCF
      1  -4.39146666E+002  5.40964786E+000   3.44555969E-003      12.12  <-- SCF
      2  -4.39146666E+002  5.40964786E+000   1.00057859E-011      12.44  <-- SCF
      3  -4.39146666E+002  5.40964790E+000   4.47118453E-012      12.75  <-- SCF
      4  -4.39146666E+002  5.40964792E+000  -2.41685650E-014      13.07  <-- SCF
------------------------------------------------------------------------ <-- SCF
 
Final energy, E             =  -439.1328835456     eV
Final free energy (E-TS)    =  -439.1466656012     eV
(energies not corrected for finite basis set)
 
NB est. 0K energy (E-0.5TS)      =  -439.1397745734     eV
 
 For future reference: finite basis dEtot/dlog(Ecut) =      -0.000026eV
 Total energy corrected for finite basis set =    -439.146666 eV

 ******************* Unconstrained Forces *******************
 *                                                          *
 *               Cartesian components (eV/A)                *
 * -------------------------------------------------------- *
 *                         x            y            z      *
 *                                                          *
 * Al              1      0.00000     -0.00000      0.00000 *
 * Al              2     -0.00000      0.00000      0.00000 *
 * Al              3     -0.00000     -0.00000     -0.00000 *
 * Al              4      0.00000      0.00000     -0.00000 *
 *                                                          *
 ************************************************************

 ******************** Constrained Forces ********************
 *                                                          *
 *               Cartesian components (eV/A)                *
 * -------------------------------------------------------- *
 *                         x            y            z      *
 *                                                          *
 * Al              1      0.00000     -0.00000      0.00000 *
 * Al              2     -0.00000      0.00000      0.00000 *
 * Al              3     -0.00000     -0.00000     -0.00000 *
 * Al              4      0.00000      0.00000     -0.00000 *
 *                                                          *
 ************************************************************

 ***************** Stress Tensor *****************
 *                                               *
 *          Cartesian components (GPa)           *
 * --------------------------------------------- *
 *             x             y             z     *
 *                                               *
 *  x      0.857686     -0.000000     -0.000000  *
 *  y     -0.000000      0.857686      0.000000  *
 *  z     -0.000000      0.000000      0.857686  *
 *                                               *
 *  Pressure:   -0.8577                          *
 *                                               *
 *************************************************

 Pseudo atomic calculation performed for Al 3s2 3p1

 Converged in 15 iterations to a total energy of -105.5952 eV

Charge spilling parameter for spin component 1 = 1.47%

     Atomic Populations (Mulliken)
     -----------------------------
Species          Ion     s      p      d      f     Total  Charge (e)
=====================================================================
  Al              1     1.11   1.89   0.00   0.00   3.00    -0.00
  Al              2     1.11   1.89   0.00   0.00   3.00     0.00
  Al              3     1.11   1.89   0.00   0.00   3.00     0.00
  Al              4     1.11   1.89   0.00   0.00   3.00     0.00
=====================================================================

                 Bond                   Population      Length (A)
======================================================================
              Al 3 -- Al 4                   0.34        2.82843
              Al 2 -- Al 4                   0.34        2.82843
              Al 2 -- Al 3                   0.34        2.82843
              Al 1 -- Al 4                   0.34        2.82843
              Al 1 -- Al 3                   0.34        2.82843
              Al 1 -- Al 2                   0.34        2.82843
======================================================================

 
 A BibTeX formatted list of references used in this run has been written to 
 castep.bib
 
Initialisation time =      5.64 s
Calculation time    =     10.57 s
Finalisation time   =      0.03 s
Total time          =     16.24 s
Peak Memory Use     = 557976 kB
  
Overall parallel efficiency rating: Satisfactory (64%)                          
  
Data was distributed by:-
k-point (48-way); efficiency rating: Satisfactory (64%)                         
  
Parallel notes:
1) Calculation only took 16.2 s, so efficiency estimates may be inaccurate.     
 +-------------------------------------------------+
 |                                                 |
 |      CCC   AA    SSS  TTTTT  EEEEE  PPPP        |
 |     C     A  A  S       T    E      P   P       |
 |     C     AAAA   SS     T    EEE    PPPP        |
 |     C     A  A     S    T    E      P           |
 |      CCC  A  A  SSS     T    EEEEE  P           |
 |                                                 |
 +-------------------------------------------------+
 |                                                 |
 | Welcome to Academic Release CASTEP version 17.21|          
 | Ab Initio Total Energy Program                  |
 |                                                 |
 | Authors:                                        |
 | M. Segall, M. Probert, C. Pickard, P. Hasnip,   |
 | S. Clark, K. Refson, J. R. Yates, M. Payne      |
 |                                                 |
 | Contributors:                                   |
 | P. Lindan, P. Haynes, J. White, V. Milman,      |
 | N. Govind, M. Gibson, P. Tulip, V. Cocula,      |
 | B. Montanari, D. Quigley, M. Glover,            |
 | L. Bernasconi, A. Perlov, M. Plummer,           |
 | E. McNellis, J. Meyer, J. Gale, D. Jochym       |
 | J. Aarons, B. Walker, R. Gillen, D. Jones       |
 | T. Green, I. J. Bush, C. J. Armstrong,          |
 | E. J. Higgins, E. L. Brown, M. S. McFly,        |
 | J. Wilkins, B-C. Shih, P. J. P. Byrne           |
 |                                                 |
 | Copyright (c) 2000 - 2017                       |
 |                                                 |
 |     Distributed under the terms of an           |
 |     Agreement between the United Kingdom        |
 |     Car-Parrinello (UKCP) Consortium,           |
 |     Daresbury Laboratory and Accelrys, Inc.     |
 |                                                 |
 | Please cite                                     |
 |                                                 |
 |     "First principles methods using CASTEP"     |
 |                                                 |
 |         Zeitschrift fuer Kristallographie       |
 |           220(5-6) pp. 567-570 (2005)           |
 |                                                 |
 | S. J. Clark, M. D. Segall, C. J. Pickard,       |
 | P. J. Hasnip, M. J. Probert, K. Refson,         |
 | M. C. Payne                                     |
 |                                                 |
 |       in all publications arising from          |
 |              your use of CASTEP                 |
 |                                                 |
 +-------------------------------------------------+


 Compiled for linux_x86_64_gfortran6.0-XT on Fri, 21 Jul 2017 10:20:05 +0100
 from code version 056e886bd5a1+ Castep172_branch Mon, 15 May 2017 14:45:35 +0100
 Compiler: GNU Fortran 6.3.0; Optimisation: fast
 MATHLIBS: Intel MKL(2017.0.0) (LAPACK version 3.6.0)
 FFT Lib : fftw3 version commercial-fftw-3.3.4-sse2-avx
 Fundamental constants values: CODATA 2010

 Run started: Thu, 31 Oct 2019 12:52:35 +0000

 Atomic calculation performed for Al: 1s2 2s2 2p6 3s2 3p1

 Converged in 55 iterations to an ae energy of -6578.725 eV

   ============================================================                
   | Pseudopotential Report - Date of generation 31-10-2019   |                
   ------------------------------------------------------------                
   | Element: Al Ionic charge:  3.00 Level of theory: LDA     |                
   | Atomic Solver: Koelling-Harmon                           |                
   |                                                          |                
   |               Reference Electronic Structure             |                
   |         Orbital         Occupation         Energy        |                
   |            3s              2.000           -0.288        |                
   |            3p              1.000           -0.102        |                
   |                                                          |                
   |                 Pseudopotential Definition               |                
   |        Beta     l      e      Rc     scheme   norm       |                
   |          1      0   -0.288   2.192     qc      0         |                
   |          2      0    0.250   2.192     qc      0         |                
   |          3      1   -0.102   2.192     qc      0         |                
   |          4      1    0.250   2.192     qc      0         |                
   |          5      2    0.000   2.000     qc      0         |                
   |          6      2    0.250   2.000     qc      0         |                
   |         loc     3    0.000   2.192     pn      0         |                
   |                                                          |                
   | Augmentation charge Rinner = 1.398                       |                
   | Partial core correction Rc = 1.398                       |                
   ------------------------------------------------------------                
   | "3|2.2|2.2|1.4|4|5|5|30:31:32U2U2"                       |                
   ------------------------------------------------------------                
   |      Author: Chris J. Pickard, Cambridge University      |                
   ============================================================                

 Pseudo atomic calculation performed for Al 3s2 3p1

 Converged in 15 iterations to a total energy of -105.5952 eV

 Calculation parallelised over 32 processes.
 Data is distributed by k-point(32-way)

 ************************************ Title ************************************
 

 ***************************** General Parameters ******************************
  
 output verbosity                               : normal  (1)
 write checkpoint data to                       : castep.check
 type of calculation                            : single point energy
 stress calculation                             : on
 density difference calculation                 : off
 electron localisation func (ELF) calculation   : off
 Hirshfeld analysis                             : off
 unlimited duration calculation
 timing information                             : on
 memory usage estimate                          : on
 write final potential to formatted file        : off
 write final density to formatted file          : off
 write BibTeX reference list                    : on
 write OTFG pseudopotential files               : on
 write electrostatic potential file             : on
 write bands file                               : on
 checkpoint writing                             : off
  
 output         length unit                     : A
 output           mass unit                     : amu
 output           time unit                     : ps
 output         charge unit                     : e
 output           spin unit                     : hbar/2
 output         energy unit                     : eV
 output          force unit                     : eV/A
 output       velocity unit                     : A/ps
 output       pressure unit                     : GPa
 output     inv_length unit                     : 1/A
 output      frequency unit                     : cm-1
 output force constant unit                     : eV/A**2
 output         volume unit                     : A**3
 output   IR intensity unit                     : (D/A)**2/amu
 output         dipole unit                     : D
 output         efield unit                     : eV/A/e
 output        entropy unit                     : J/mol/K
  
 wavefunctions paging                           : none
 random number generator seed                   : randomised (125235637)
 data distribution                              : optimal for this architecture
 optimization strategy                          : maximize speed(+++)

 *********************** Exchange-Correlation Parameters ***********************
  
 using functional                               : Local Density Approximation
 relativistic treatment                         : Koelling-Harmon
 DFT+D: Semi-empirical dispersion correction    : off

 ************************* Pseudopotential Parameters **************************
  
 pseudopotential representation                 : reciprocal space
 <beta|phi> representation                      : reciprocal space
 spin-orbit coupling                            : off

 **************************** Basis Set Parameters *****************************
  
 plane wave basis set cut-off                   :   600.0000   eV
 size of standard grid                          :     1.7500
 size of   fine   gmax                          :    21.9610   1/A
 finite basis set correction                    : automatic
 number of sample energies                      :          3
           sample  spacing                      :     5.0000   eV

 **************************** Electronic Parameters ****************************
  
 number of  electrons                           :  96.00    
 net charge of system                           :  0.000    
 treating system as non-spin-polarized
 number of bands                                :         58

 ********************* Electronic Minimization Parameters **********************
  
 Method: Treating system as metallic with density mixing treatment of electrons,
         and number of  SD  steps               :          1
         and number of  CG  steps               :          4
  
 total energy / atom convergence tol.           : 0.1000E-04   eV
 eigen-energy convergence tolerance             : 0.1000E-05   eV
 max force / atom convergence tol.              : ignored
 convergence tolerance window                   :          3   cycles
 max. number of SCF cycles                      :        250
 number of fixed-spin iterations                :         10
 smearing scheme                                : Gaussian
 smearing width                                 : 0.1000       eV
 Fermi energy convergence tolerance             : 0.2721E-13   eV
 periodic dipole correction                     : NONE

 ************************** Density Mixing Parameters **************************
  
 density-mixing scheme                          : Pulay
 max. length of mixing history                  :         20
 charge density mixing amplitude                : 0.8000    
 cut-off energy for mixing                      :  600.0       eV

 *********************** Population Analysis Parameters ************************
  
 Population analysis with cutoff                :  3.000       A

 *******************************************************************************
  

                           -------------------------------
                                      Unit Cell
                           -------------------------------
        Real Lattice(A)                      Reciprocal Lattice(1/A)
   8.0000000   0.0000000   0.0000000        0.7853982   0.0000000   0.0000000
   0.0000000   8.0000000   0.0000000        0.0000000   0.7853982   0.0000000
   0.0000000   0.0000000   8.0000000        0.0000000   0.0000000   0.7853982

                       Lattice parameters(A)       Cell Angles
                    a =    8.000000          alpha =   90.000000
                    b =    8.000000          beta  =   90.000000
                    c =    8.000000          gamma =   90.000000

                       Current cell volume =  512.000000       A**3
                                   density =    1.686346   AMU/A**3
                                           =    2.800244     g/cm^3

                           -------------------------------
                                     Cell Contents
                           -------------------------------
                         Total number of ions in cell =   32
                      Total number of species in cell =    1
                        Max number of any one species =   32

            xxxxxxxxxxxxxxxxxxxxxxxxxxxxxxxxxxxxxxxxxxxxxxxxxxxxxxxxxxxx
            x  Element    Atom        Fractional coordinates of atoms  x
            x            Number           u          v          w      x
            x----------------------------------------------------------x
            x  Al           1         0.001250   0.000000   0.000000   x 
            x  Al           2         0.500000   0.000000   0.000000   x 
            x  Al           3         0.000000   0.500000   0.000000   x 
            x  Al           4         0.500000   0.500000   0.000000   x 
            x  Al           5         0.000000   0.000000   0.500000   x 
            x  Al           6         0.500000   0.000000   0.500000   x 
            x  Al           7         0.000000   0.500000   0.500000   x 
            x  Al           8         0.500000   0.500000   0.500000   x 
            x  Al           9         0.250000   0.250000   0.000000   x 
            x  Al          10         0.750000   0.250000   0.000000   x 
            x  Al          11         0.250000   0.750000   0.000000   x 
            x  Al          12         0.750000   0.750000   0.000000   x 
            x  Al          13         0.250000   0.250000   0.500000   x 
            x  Al          14         0.750000   0.250000   0.500000   x 
            x  Al          15         0.250000   0.750000   0.500000   x 
            x  Al          16         0.750000   0.750000   0.500000   x 
            x  Al          17         0.250000   0.000000   0.250000   x 
            x  Al          18         0.750000   0.000000   0.250000   x 
            x  Al          19         0.250000   0.500000   0.250000   x 
            x  Al          20         0.750000   0.500000   0.250000   x 
            x  Al          21         0.250000   0.000000   0.750000   x 
            x  Al          22         0.750000   0.000000   0.750000   x 
            x  Al          23         0.250000   0.500000   0.750000   x 
            x  Al          24         0.750000   0.500000   0.750000   x 
            x  Al          25         0.000000   0.250000   0.250000   x 
            x  Al          26         0.500000   0.250000   0.250000   x 
            x  Al          27         0.000000   0.750000   0.250000   x 
            x  Al          28         0.500000   0.750000   0.250000   x 
            x  Al          29         0.000000   0.250000   0.750000   x 
            x  Al          30         0.500000   0.250000   0.750000   x 
            x  Al          31         0.000000   0.750000   0.750000   x 
            x  Al          32         0.500000   0.750000   0.750000   x 
            xxxxxxxxxxxxxxxxxxxxxxxxxxxxxxxxxxxxxxxxxxxxxxxxxxxxxxxxxxxx


                         No user defined ionic velocities

                           -------------------------------
                                   Details of Species
                           -------------------------------

                               Mass of species in AMU
                                    Al   26.9815400

                          Electric Quadrupole Moment (Barn)
                                    Al    0.1466000 Isotope 27

                          Files used for pseudopotentials:
                                    Al 3|2.2|2.2|1.4|4|5|5|30:31:32U2U2

                           -------------------------------
                              k-Points For BZ Sampling
                           -------------------------------
                       MP grid size for SCF calculation is  4  4  4
                            with an offset of   0.000  0.000  0.000
                       Number of kpoints used =            32

                           -------------------------------
                               Symmetry and Constraints
                           -------------------------------

                      Maximum deviation from symmetry =  0.00000         ANG

                      Number of symmetry operations   =           1
                      Number of ionic constraints     =           3
                      Point group of crystal =     1: C1, 1, 1
                      Space group of crystal =    99: P4mm, P 4 -2

             Set iprint > 1 for details on symmetry rotations/translations

                         Centre of mass is constrained
             Set iprint > 1 for details of linear ionic constraints

                         Number of cell constraints= 0
                         Cell constraints are:  1 2 3 4 5 6

                         External pressure/stress (GPa)
                          0.00000   0.00000   0.00000
                                    0.00000   0.00000
                                              0.00000
  
+---------------- MEMORY AND SCRATCH DISK ESTIMATES PER PROCESS --------------+
|                                                     Memory          Disk    |
| Baseline code, static data and system overhead      171.0 MB         0.0 MB |
| BLAS internal memory storage                          0.0 MB         0.0 MB |
| Model and support data                              518.9 MB         0.0 MB |
| Electronic energy minimisation requirements         145.0 MB         0.0 MB |
| Force calculation requirements                       31.3 MB         0.0 MB |
| Stress calculation requirements                      34.6 MB         0.0 MB |
|                                               ----------------------------- |
| Approx. total storage required per process          834.8 MB         0.0 MB |
|                                                                             |
| Requirements will fluctuate during execution and may exceed these estimates |
+-----------------------------------------------------------------------------+
Calculating finite basis set correction with  3 cut-off energies.
Calculating total energy with cut-off of  590.000 eV.
------------------------------------------------------------------------ <-- SCF
SCF loop      Energy           Fermi           Energy gain       Timer   <-- SCF
                               energy          per atom          (sec)   <-- SCF
------------------------------------------------------------------------ <-- SCF
Initial   6.84067996E+002  0.00000000E+000                        14.81  <-- SCF
      1  -3.19891525E+003  7.95893338E+000   1.21343226E+002      29.99  <-- SCF
      2  -3.49896297E+003  5.43857403E+000   9.37649122E+000      40.62  <-- SCF
      3  -3.51403988E+003  5.47981948E+000   4.71153646E-001      51.53  <-- SCF
      4  -3.51346414E+003  5.45535030E+000  -1.79919687E-002      69.40  <-- SCF
      5  -3.51337029E+003  5.44290756E+000  -2.93286092E-003      86.12  <-- SCF
      6  -3.51337017E+003  5.44269495E+000  -3.64617589E-006     101.48  <-- SCF
      7  -3.51337016E+003  5.44263189E+000  -3.30873020E-007     115.01  <-- SCF
------------------------------------------------------------------------ <-- SCF
 
Final energy, E             =  -3513.306827105     eV
Final free energy (E-TS)    =  -3513.370162365     eV
(energies not corrected for finite basis set)
 
NB est. 0K energy (E-0.5TS)      =  -3513.338494735     eV
 
Calculating total energy with cut-off of  595.000 eV.
------------------------------------------------------------------------ <-- SCF
SCF loop      Energy           Fermi           Energy gain       Timer   <-- SCF
                               energy          per atom          (sec)   <-- SCF
------------------------------------------------------------------------ <-- SCF
Initial  -3.51330683E+003  0.00000000E+000                       126.65  <-- SCF
      1  -3.51337017E+003  5.44263883E+000   1.97955840E-003     136.26  <-- SCF
      2  -3.51337017E+003  5.44263880E+000   2.01118955E-008     148.84  <-- SCF
      3  -3.51337016E+003  5.44263875E+000  -2.45285292E-007     161.23  <-- SCF
      4  -3.51337016E+003  5.44263843E+000  -4.16840075E-009     173.37  <-- SCF
------------------------------------------------------------------------ <-- SCF
 
Final energy, E             =  -3513.306832067     eV
Final free energy (E-TS)    =  -3513.370164313     eV
(energies not corrected for finite basis set)
 
NB est. 0K energy (E-0.5TS)      =  -3513.338498190     eV
 
Calculating total energy with cut-off of  600.000 eV.
------------------------------------------------------------------------ <-- SCF
SCF loop      Energy           Fermi           Energy gain       Timer   <-- SCF
                               energy          per atom          (sec)   <-- SCF
------------------------------------------------------------------------ <-- SCF
Initial  -3.51330683E+003  0.00000000E+000                       185.05  <-- SCF
      1  -3.51337017E+003  5.44263835E+000   1.97920477E-003     193.32  <-- SCF
      2  -3.51337017E+003  5.44263835E+000   8.09356905E-010     204.89  <-- SCF
      3  -3.51337017E+003  5.44263842E+000  -8.58071065E-009     216.51  <-- SCF
      4  -3.51337017E+003  5.44263840E+000  -2.32574101E-010     228.10  <-- SCF
------------------------------------------------------------------------ <-- SCF
 
Final energy, E             =  -3513.306834052     eV
Final free energy (E-TS)    =  -3513.370166311     eV
(energies not corrected for finite basis set)
 
NB est. 0K energy (E-0.5TS)      =  -3513.338500182     eV
 
 For future reference: finite basis dEtot/dlog(Ecut) =      -0.000226eV
 Total energy corrected for finite basis set =   -3513.370166 eV

 ******************* Unconstrained Forces *******************
 *                                                          *
 *               Cartesian components (eV/A)                *
 * -------------------------------------------------------- *
 *                         x            y            z      *
 *                                                          *
 * Al              1     -0.04620     -0.00001     -0.00002 *
 * Al              2      0.00226     -0.00001     -0.00002 *
 * Al              3     -0.00027      0.00001     -0.00002 *
 * Al              4      0.00076      0.00001     -0.00001 *
 * Al              5     -0.00027     -0.00000      0.00001 *
 * Al              6      0.00076     -0.00001      0.00002 *
 * Al              7      0.00078      0.00001      0.00002 *
 * Al              8     -0.00107      0.00001      0.00002 *
 * Al              9      0.00623      0.00662     -0.00002 *
 * Al             10      0.00604     -0.00637     -0.00002 *
 * Al             11      0.00623     -0.00662     -0.00002 *
 * Al             12      0.00604      0.00637     -0.00001 *
 * Al             13     -0.00007      0.00013      0.00001 *
 * Al             14     -0.00010     -0.00010      0.00001 *
 * Al             15     -0.00007     -0.00013      0.00002 *
 * Al             16     -0.00011      0.00010      0.00002 *
 * Al             17      0.00622     -0.00001      0.00658 *
 * Al             18      0.00604     -0.00001     -0.00640 *
 * Al             19     -0.00007      0.00001      0.00009 *
 * Al             20     -0.00010      0.00001     -0.00013 *
 * Al             21      0.00623     -0.00001     -0.00658 *
 * Al             22      0.00604     -0.00001      0.00640 *
 * Al             23     -0.00007      0.00001     -0.00009 *
 * Al             24     -0.00010      0.00001      0.00013 *
 * Al             25     -0.00094     -0.00001     -0.00004 *
 * Al             26     -0.00034      0.00002     -0.00002 *
 * Al             27     -0.00094      0.00001     -0.00004 *
 * Al             28     -0.00034     -0.00002     -0.00002 *
 * Al             29     -0.00094     -0.00001      0.00004 *
 * Al             30     -0.00034      0.00002      0.00002 *
 * Al             31     -0.00094      0.00001      0.00005 *
 * Al             32     -0.00034     -0.00002      0.00002 *
 *                                                          *
 ************************************************************

 ******************** Constrained Forces ********************
 *                                                          *
 *               Cartesian components (eV/A)                *
 * -------------------------------------------------------- *
 *                         x            y            z      *
 *                                                          *
 * Al              1     -0.04620     -0.00001     -0.00002 *
 * Al              2      0.00226     -0.00001     -0.00002 *
 * Al              3     -0.00027      0.00001     -0.00002 *
 * Al              4      0.00076      0.00001     -0.00001 *
 * Al              5     -0.00027     -0.00000      0.00001 *
 * Al              6      0.00076     -0.00001      0.00002 *
 * Al              7      0.00078      0.00001      0.00002 *
 * Al              8     -0.00107      0.00001      0.00002 *
 * Al              9      0.00623      0.00662     -0.00002 *
 * Al             10      0.00604     -0.00637     -0.00002 *
 * Al             11      0.00623     -0.00662     -0.00002 *
 * Al             12      0.00604      0.00637     -0.00001 *
 * Al             13     -0.00007      0.00013      0.00001 *
 * Al             14     -0.00010     -0.00010      0.00001 *
 * Al             15     -0.00007     -0.00013      0.00002 *
 * Al             16     -0.00011      0.00010      0.00002 *
 * Al             17      0.00622     -0.00001      0.00658 *
 * Al             18      0.00604     -0.00001     -0.00640 *
 * Al             19     -0.00007      0.00001      0.00009 *
 * Al             20     -0.00010      0.00001     -0.00013 *
 * Al             21      0.00623     -0.00001     -0.00658 *
