54
Lattice="8.47231566 0.0 0.0 0.0 8.47231566 0.0 0.0 0.0 12.194135970000001" Properties=species:S:1:pos:R:3:forces:R:3 pbc="T T T"
Ti       1.41775846       1.41205261       2.04056839      -0.03869886       0.00000000      -0.05580414 
Ti       4.23615783       1.41205261       2.03235600       0.00936550      -0.00000000       0.00014343 
Ti       7.06026305       1.41205261       2.03235600       0.00927353       0.00000000       0.00018646 
Ti       1.41205261       4.23615783       2.03235600      -0.00047478      -0.00003655       0.00016525 
Ti       4.23615783       4.23615783       2.03235600      -0.00059834      -0.00085660       0.00007712 
Ti       7.06026305       4.23615783       2.03235600      -0.00059748       0.00085703       0.00006811 
Ti       1.41205261       7.06026305       2.03235600      -0.00047478       0.00003655       0.00016525 
Ti       4.23615783       7.06026305       2.03235600      -0.00059834       0.00085660       0.00007712 
Ti       7.06026305       7.06026305       2.03235600      -0.00059748      -0.00085703       0.00006811 
Ti       1.41205261       1.41205261       6.09706799       0.00013291       0.00000000      -0.00280365 
Ti       4.23615783       1.41205261       6.09706799       0.00026732       0.00000000       0.00037628 
Ti       7.06026305       1.41205261       6.09706799      -0.00015248      -0.00000000       0.00008983 
Ti       1.41205261       4.23615783       6.09706799      -0.00003627       0.00021138       0.00023250 
Ti       4.23615783       4.23615783       6.09706799       0.00003283       0.00001595       0.00010091 
Ti       7.06026305       4.23615783       6.09706799      -0.00001554       0.00003375       0.00006800 
Ti       1.41205261       7.06026305       6.09706799      -0.00003627      -0.00021138       0.00023250 
Ti       4.23615783       7.06026305       6.09706799       0.00003283      -0.00001595       0.00010091 
Ti       7.06026305       7.06026305       6.09706799      -0.00001554      -0.00003375       0.00006800 
Ti       1.41205261       1.41205261      10.16177998       0.00012196      -0.00000000      -0.00277228 
Ti       4.23615783       1.41205261      10.16177998      -0.00015536      -0.00000000       0.00008867 
Ti       7.06026305       1.41205261      10.16177998       0.00028557      -0.00000000       0.00040017 
Ti       1.41205261       4.23615783      10.16177998      -0.00003694      -0.00021901       0.00024501 
Ti       4.23615783       4.23615783      10.16177998      -0.00001585      -0.00003249       0.00006670 
Ti       7.06026305       4.23615783      10.16177998       0.00003452      -0.00001656       0.00010239 
Ti       1.41205261       7.06026305      10.16177998      -0.00003694       0.00021901       0.00024501 
Ti       4.23615783       7.06026305      10.16177998      -0.00001585       0.00003249       0.00006670 
Ti       7.06026305       7.06026305      10.16177998       0.00003452       0.00001656       0.00010239 
Al       0.00000000       0.00000000       0.00000000       0.00700565       0.00691822       0.01009849 
Al       2.82410522       0.00000000       0.00000000      -0.00240210       0.00246934       0.00340054 
Al       5.64821044       0.00000000       0.00000000       0.00099369       0.00034894       0.00007089 
Al       0.00000000       2.82410522       0.00000000       0.00700565      -0.00691822       0.01009849 
Al       2.82410522       2.82410522       0.00000000      -0.00240210      -0.00246934       0.00340054 
Al       5.64821044       2.82410522       0.00000000       0.00099369      -0.00034894       0.00007089 
Al       0.00000000       5.64821044       0.00000000       0.00019726      -0.00000000       0.00032179 
Al       2.82410522       5.64821044       0.00000000      -0.00050266      -0.00000000      -0.00018107 
Al       5.64821044       5.64821044       0.00000000       0.00033736      -0.00000000      -0.00000620 
Al       0.00000000       0.00000000       4.06471199      -0.00242590      -0.00248154       0.00338874 
Al       2.82410522       0.00000000       4.06471199       0.00730296      -0.00726889       0.01052706 
Al       5.64821044       0.00000000       4.06471199       0.00098364      -0.00035029       0.00006396 
Al       0.00000000       2.82410522       4.06471199      -0.00242590       0.00248154       0.00338874 
Al       2.82410522       2.82410522       4.06471199       0.00730296       0.00726889       0.01052706 
Al       5.64821044       2.82410522       4.06471199       0.00098364       0.00035029       0.00006396 
Al       0.00000000       5.64821044       4.06471199      -0.00050613      -0.00000000      -0.00018456 
Al       2.82410522       5.64821044       4.06471199       0.00019245      -0.00000000       0.00031360 
Al       5.64821044       5.64821044       4.06471199       0.00034160      -0.00000000      -0.00000696 
Al       0.00000000       0.00000000       8.12942398      -0.00002069       0.00001846       0.00046699 
Al       2.82410522       0.00000000       8.12942398      -0.00001997      -0.00001952       0.00046995 
Al       5.64821044       0.00000000       8.12942398       0.00004057      -0.00000084       0.00015068 
Al       0.00000000       2.82410522       8.12942398      -0.00002069      -0.00001846       0.00046699 
Al       2.82410522       2.82410522       8.12942398      -0.00001997       0.00001952       0.00046995 
Al       5.64821044       2.82410522       8.12942398       0.00004057       0.00000084       0.00015068 
Al       0.00000000       5.64821044       8.12942398      -0.00000157      -0.00000000       0.00015023 
Al       2.82410522       5.64821044       8.12942398      -0.00000023      -0.00000000       0.00015112 
Al       5.64821044       5.64821044       8.12942398       0.00000179      -0.00000000       0.00001069 
