2
Lattice="3.3490995884917627 -1.6041168240723547e-17 -6.874786388881522e-18 -1.6041168240723547e-17 3.3490995884917627 -3.1883067310754884e-18 -6.874786388881522e-18 -3.1883067310754884e-18 3.3490995884917627" Properties=species:S:1:pos:R:3 energy=-3186.82280719 pbc="T T T" n_minim_iter=0
Ti       0.00000000       0.00000000      -0.00000000 
Ti       1.67454979       1.67454979       1.67454979 
