2
Lattice="3.325678545388468 -1.5928988568884532e-17 -6.826709386664801e-18 -1.5928988568884532e-17 3.325678545388468 -3.166010150337299e-18 -6.826709386664801e-18 -3.166010150337299e-18 3.325678545388468" Properties=species:S:1:pos:R:3 energy=-3186.89256494 pbc="T T T" n_minim_iter=0
Ti       0.00000000       0.00000000      -0.00000000 
Ti       1.66283927       1.66283927       1.66283927 
