2
Lattice="3.1251378948343893 -1.4968459856720783e-17 -6.415054224308908e-18 -1.4968459856720783e-17 3.1251378948343893 -2.9750976112736965e-18 -6.415054224308908e-18 -2.9750976112736965e-18 3.1251378948343893" Properties=species:S:1:pos:R:3 energy=-3187.12318982 pbc="T T T" n_minim_iter=0
Ti       0.00000000       0.00000000      -0.00000000 
Ti       1.56256895       1.56256895       1.56256895 
