2
Lattice="3.301922887699703 -1.5815206194970078e-17 -6.7779455121300346e-18 -1.5815206194970078e-17 3.301922887699703 -3.1433950201182764e-18 -6.7779455121300346e-18 -3.1433950201182764e-18 3.301922887699703" Properties=species:S:1:pos:R:3 energy=-3186.95546217 pbc="T T T" n_minim_iter=0
Ti       0.00000000       0.00000000      -0.00000000 
Ti       1.65096144       1.65096144       1.65096144 
