2
Lattice="3.0428589148470127 -1.4574368571651825e-17 -6.246157959279356e-18 -1.4574368571651825e-17 3.0428589148470127 -2.896768908651295e-18 -6.246157959279356e-18 -2.896768908651295e-18 3.0428589148470127" Properties=species:S:1:pos:R:3 energy=-3186.93928867 pbc="T T T" n_minim_iter=0
Ti       0.00000000       0.00000000      -0.00000000 
Ti       1.52142946       1.52142946       1.52142946 
