2
Lattice="2.925707974962781 -1.4013251206644425e-17 -6.005679088561899e-18 -1.4013251206644425e-17 2.925707974962781 -2.7852424758547935e-18 -6.005679088561899e-18 -2.7852424758547935e-18 2.925707974962781" Properties=species:S:1:pos:R:3 energy=-3186.37650887 pbc="T T T" n_minim_iter=0
Ti       0.00000000       0.00000000      -0.00000000 
Ti       1.46285399       1.46285399       1.46285399 
