2
Lattice="3.3721975569333074 -1.6151800483211325e-17 -6.92220020709057e-18 -1.6151800483211325e-17 3.3721975569333074 -3.2102957482159163e-18 -6.92220020709057e-18 -3.2102957482159163e-18 3.3721975569333074" Properties=species:S:1:pos:R:3 energy=-3186.74453233 pbc="T T T" n_minim_iter=0
Ti       0.00000000       0.00000000      -0.00000000 
Ti       1.68609878       1.68609878       1.68609878 
