2
Lattice="3.0981957102474933 -1.4839414988298205e-17 -6.359749280699232e-18 -1.4839414988298205e-17 3.0981957102474933 -2.9494489417735567e-18 -6.359749280699232e-18 -2.9494489417735567e-18 3.0981957102474933" Properties=species:S:1:pos:R:3 energy=-3187.08585322 pbc="T T T" n_minim_iter=0
Ti       0.00000000       0.00000000      -0.00000000 
Ti       1.54909786       1.54909786       1.54909786 
