2
Lattice="2.89490876162006 -1.3865732343780447e-17 -5.9424567187630515e-18 -1.3865732343780447e-17 2.89490876162006 -2.7559219565277916e-18 -5.9424567187630515e-18 -2.7559219565277916e-18 2.89490876162006" Properties=species:S:1:pos:R:3 energy=-3186.21812364 pbc="T T T" n_minim_iter=0
Ti       0.00000000       0.00000000      -0.00000000 
Ti       1.44745438       1.44745438       1.44745438 
