2
Lattice="3.0144193171866926 -1.443815155011705e-17 -6.187779235764453e-18 -1.443815155011705e-17 3.0144193171866926 -2.869694718035688e-18 -6.187779235764453e-18 -2.869694718035688e-18 3.0144193171866926" Properties=species:S:1:pos:R:3 energy=-3186.83046827 pbc="T T T" n_minim_iter=0
Ti       0.00000000       0.00000000      -0.00000000 
Ti       1.50720966       1.50720966       1.50720966 
