2
Lattice="3.1776710324978445 -1.5220077605672848e-17 -6.522890402431221e-18 -1.5220077605672848e-17 3.1776710324978445 -3.0251085924318706e-18 -6.522890402431221e-18 -3.0251085924318706e-18 3.1776710324978445" Properties=species:S:1:pos:R:3 energy=-3187.13724037 pbc="T T T" n_minim_iter=0
Ti       0.00000000       0.00000000      -0.00000000 
Ti       1.58883552       1.58883552       1.58883552 
