2
Lattice="2.8634398696728685 -1.3715005924115698e-17 -5.877859681763873e-18 -1.3715005924115698e-17 2.8634398696728685 -2.725963910383245e-18 -5.877859681763873e-18 -2.725963910383245e-18 2.8634398696728685" Properties=species:S:1:pos:R:3 energy=-3186.10100595 pbc="T T T" n_minim_iter=0
Ti       0.00000000       0.00000000      -0.00000000 
Ti       1.43171993       1.43171993       1.43171993 
