2
Lattice="3.3949833667497744 -1.6260937580842896e-17 -6.968973248932671e-18 -1.6260937580842896e-17 3.3949833667497744 -3.2319875937079054e-18 -6.968973248932671e-18 -3.2319875937079054e-18 3.3949833667497744" Properties=species:S:1:pos:R:3 energy=-3186.65705371 pbc="T T T" n_minim_iter=0
Ti       0.00000000       0.00000000      -0.00000000 
Ti       1.69749168       1.69749168       1.69749168 
