2
Lattice="3.0707766111210555 -1.4708085844307494e-17 -6.3034653618460704e-18 -1.4708085844307494e-17 3.0707766111210555 -2.9233462547691917e-18 -6.3034653618460704e-18 -2.9233462547691917e-18 3.0707766111210555" Properties=species:S:1:pos:R:3 energy=-3187.02443441 pbc="T T T" n_minim_iter=0
Ti       0.00000000       0.00000000      -0.00000000 
Ti       1.53538831       1.53538831       1.53538831 
