2
Lattice="3.2285223800355385 -1.5463640091519082e-17 -6.62727432493675e-18 -1.5463640091519082e-17 3.2285223800355385 -3.0735185275068984e-18 -6.62727432493675e-18 -3.0735185275068984e-18 3.2285223800355385" Properties=species:S:1:pos:R:3 energy=-3187.09310423 pbc="T T T" n_minim_iter=0
Ti       0.00000000       0.00000000      -0.00000000 
Ti       1.61426119       1.61426119       1.61426119 
