2
Lattice="2.9558720392682734 -1.415772789883091e-17 -6.0675976709275364e-18 -1.415772789883091e-17 2.9558720392682734 -2.8139583401403062e-18 -6.0675976709275364e-18 -2.8139583401403062e-18 2.9558720392682734" Properties=species:S:1:pos:R:3 energy=-3186.54421324 pbc="T T T" n_minim_iter=0
Ti       0.00000000       0.00000000      -0.00000000 
Ti       1.47793602       1.47793602       1.47793602 
