2
Lattice="3.2778204015095884 -1.5699762618038565e-17 -6.728469693445101e-18 -1.5699762618038565e-17 3.2778204015095884 -3.1204497129020752e-18 -6.728469693445101e-18 -3.1204497129020752e-18 3.2778204015095884" Properties=species:S:1:pos:R:3 energy=-3187.01010314 pbc="T T T" n_minim_iter=0
Ti       0.00000000       0.00000000      -0.00000000 
Ti       1.63891020       1.63891020       1.63891020 
