2
Lattice="2.985432720681777 -1.4299314570512414e-17 -6.1282776730767515e-18 -1.4299314570512414e-17 2.985432720681777 -2.842099790412406e-18 -6.1282776730767515e-18 -2.842099790412406e-18 2.985432720681777" Properties=species:S:1:pos:R:3 energy=-3186.6981304 pbc="T T T" n_minim_iter=0
Ti       0.00000000       0.00000000      -0.00000000 
Ti       1.49271636       1.49271636       1.49271636 
