2
Lattice="2.95 0.0 0.0 -1.4749999999999994 2.5547749411640948 0.0 0.0 0.0 4.6846000000000005" Properties=species:S:1:pos:R:3 energy=-3187.14556574 pbc="T T T" n_minim_iter=1
Ti       0.00000000       0.00000000       0.00000000 
Ti       0.00000000       1.70318329       2.34230000 
2
Lattice="2.928008006500023 1.3472406315424429e-12 4.936194994342576e-13 -1.464004003248844 2.5357293142846062 -5.54216734415945e-13 7.838677651016014e-13 -5.636812610444256e-13 4.500914206652975" Properties=species:S:1:pos:R:3 stress="0.047831272845378685 -1.077404372379104e-12 -3.1221700545431036e-13 -1.077404372379104e-12 0.047831272044120056 9.111583192004901e-14 -3.1221700545431036e-13 9.111583192004901e-14 0.03346993804918359" pbc="T T T" n_minim_iter=2
Ti       0.00000000       0.00000000      -0.00000000 
Ti       0.00000000       1.69048621       2.25045710 
2
Lattice="2.8683112312572216 2.2573832018875987e-12 7.083648700941891e-13 -1.4341556156266553 2.484030392282774 -6.290717272222331e-13 1.1248834137095728e-12 -5.040547241068865e-13 4.509623350481232" Properties=species:S:1:pos:R:3 stress="-0.0014774001094779343 1.220657674323415e-12 -8.139223896438795e-13 1.220657674323415e-12 -0.001477400578445479 1.1660430997358139e-12 -8.139223896438795e-13 1.1660430997358139e-12 -0.008070659574460392" pbc="T T T" n_minim_iter=3
Ti      -0.00000000      -0.00000000       0.00000000 
Ti       0.00000000       1.65602026       2.25481168 
