2
Lattice="3.0608568952861734 1.415334285458033e-08 5.168616337648836e-10 -1.5304284353859317 2.65076505284379 -1.6986705367230927e-10 8.087345756006146e-10 1.5987690340475043e-10 4.356140426629947" Properties=species:S:1:pos:R:3 stress="-1.5533036592711835 -6.798603065274735e-08 -3.6486171366842422e-09 -6.798603065274735e-08 -1.5532230631831017 -7.194773499551637e-10 -3.6486171366842422e-09 -7.194773499551637e-10 -1.5530456471665848" pbc="T T T" n_minim_iter=0
Ti       0.00000000       0.00000017      -0.00000000 
Ti       0.00000001       1.76717653       2.17807021 
