2
Lattice="2.9153410856609665 2.294396062333604e-12 7.199794732593606e-13 -1.4576705428284955 2.5247594409335825 -6.393862117239049e-13 1.1433274035358652e-12 -5.123193852175555e-13 4.583564744036317" Properties=species:S:1:pos:R:3 energy=-3187.28506833 pbc="T T T" n_minim_iter=0
Ti      -0.00000000      -0.00000000       0.00000000 
Ti       0.00000000       1.68317296       2.29178237 
