2
Lattice="2.9431195119691136 4.360910376292962e-12 5.356424602811796e-13 -1.4715597559807794 2.548816262865436 -8.762186876293674e-13 8.592245509795121e-13 -1.1121642283472554e-12 4.604531898642052" Properties=species:S:1:pos:R:3 stress="0.04840983324888365 -4.986719536121484e-12 4.363529668953501e-13 -4.986719536121484e-12 0.04840983624029197 -5.376551571318524e-13 4.363529668953501e-13 -5.376551571318524e-13 0.04617333076354292" pbc="T T T" n_minim_iter=0
Ti       0.00000000      -0.00000000      -0.00000000 
Ti       0.00000000       1.69921084       2.30226595 
