2
Lattice="2.8683112312572216 2.2573832018875987e-12 7.083648700941891e-13 -1.4341556156266553 2.484030392282774 -6.290717272222331e-13 1.1248834137095728e-12 -5.040547241068865e-13 4.509623350481232" Properties=species:S:1:pos:R:3 energy=-3187.3097612 pbc="T T T" n_minim_iter=0
Ti      -0.00000000      -0.00000000       0.00000000 
Ti       0.00000000       1.65602026       2.25481168 
