2
Lattice="3.2153860294187275 -1.0541728221406124e-07 2.3331242174283684e-09 -1.6076931060034074 2.784606005261145 1.312292530622639e-09 3.6686093634140836e-09 4.500039271845517e-09 3.409182005345954" Properties=species:S:1:pos:R:3 stress="-64.88932811575661 2.5932113377906776e-05 1.5357635703085643e-05 2.5932113377906776e-05 -64.8893516260196 1.883938866602034e-05 1.5357635703085643e-05 1.883938866602034e-05 -64.89025959262564" pbc="T T T" n_minim_iter=0
Ti       0.00000003      -0.00000000      -0.00000000 
Ti      -0.00000009       1.85640397       1.70459101 
