2
Lattice="2.8920173577957833 2.276040107472602e-12 7.142193907134749e-13 -1.4460086788959199 2.504560500090941 -6.342709028921708e-13 1.1341803924529987e-12 -5.082206545477055e-13 4.5468946551509495" Properties=species:S:1:pos:R:3 energy=-3187.30445667 pbc="T T T" n_minim_iter=0
Ti      -0.00000000      -0.00000000       0.00000000 
Ti       0.00000000       1.66970700       2.27344733 
