2
Lattice="2.8442066359090794 2.238412698256672e-12 7.024119426829697e-13 -1.4221033179526006 2.4631552003628867 -6.237851602470718e-13 1.1154301649805564e-12 -4.998187698542546e-13 4.471725564198034" Properties=species:S:1:pos:R:3 energy=-3187.30165638 pbc="T T T" n_minim_iter=0
Ti      -0.00000000      -0.00000000       0.00000000 
Ti       0.00000000       1.64210346       2.23586278 
