 +-------------------------------------------------+
 |                                                 |
 |      CCC   AA    SSS  TTTTT  EEEEE  PPPP        |
 |     C     A  A  S       T    E      P   P       |
 |     C     AAAA   SS     T    EEE    PPPP        |
 |     C     A  A     S    T    E      P           |
 |      CCC  A  A  SSS     T    EEEEE  P           |
 |                                                 |
 +-------------------------------------------------+
 |                                                 |
 | Welcome to Academic Release CASTEP version 17.21|          
 | Ab Initio Total Energy Program                  |
 |                                                 |
 | Authors:                                        |
 | M. Segall, M. Probert, C. Pickard, P. Hasnip,   |
 | S. Clark, K. Refson, J. R. Yates, M. Payne      |
 |                                                 |
 | Contributors:                                   |
 | P. Lindan, P. Haynes, J. White, V. Milman,      |
 | N. Govind, M. Gibson, P. Tulip, V. Cocula,      |
 | B. Montanari, D. Quigley, M. Glover,            |
 | L. Bernasconi, A. Perlov, M. Plummer,           |
 | E. McNellis, J. Meyer, J. Gale, D. Jochym       |
 | J. Aarons, B. Walker, R. Gillen, D. Jones       |
 | T. Green, I. J. Bush, C. J. Armstrong,          |
 | E. J. Higgins, E. L. Brown, M. S. McFly,        |
 | J. Wilkins, B-C. Shih, P. J. P. Byrne           |
 |                                                 |
 | Copyright (c) 2000 - 2017                       |
 |                                                 |
 |     Distributed under the terms of an           |
 |     Agreement between the United Kingdom        |
 |     Car-Parrinello (UKCP) Consortium,           |
 |     Daresbury Laboratory and Accelrys, Inc.     |
 |                                                 |
 | Please cite                                     |
 |                                                 |
 |     "First principles methods using CASTEP"     |
 |                                                 |
 |         Zeitschrift fuer Kristallographie       |
 |           220(5-6) pp. 567-570 (2005)           |
 |                                                 |
 | S. J. Clark, M. D. Segall, C. J. Pickard,       |
 | P. J. Hasnip, M. J. Probert, K. Refson,         |
 | M. C. Payne                                     |
 |                                                 |
 |       in all publications arising from          |
 |              your use of CASTEP                 |
 |                                                 |
 +-------------------------------------------------+


 Compiled for linux_x86_64_gfortran6.0-XT on Fri, 21 Jul 2017 10:20:05 +0100
 from code version 056e886bd5a1+ Castep172_branch Mon, 15 May 2017 14:45:35 +0100
 Compiler: GNU Fortran 6.3.0; Optimisation: fast
 MATHLIBS: Intel MKL(2017.0.0) (LAPACK version 3.6.0)
 FFT Lib : fftw3 version commercial-fftw-3.3.4-sse2-avx
 Fundamental constants values: CODATA 2010

 Run started: Wed, 11 Dec 2019 23:29:57 +0000

 Atomic calculation performed for Al: 1s2 2s2 2p6 3s2 3p1

 Converged in 55 iterations to an ae energy of -6578.725 eV

   ============================================================                
   | Pseudopotential Report - Date of generation 11-12-2019   |                
   ------------------------------------------------------------                
   | Element: Al Ionic charge:  3.00 Level of theory: LDA     |                
   | Atomic Solver: Koelling-Harmon                           |                
   |                                                          |                
   |               Reference Electronic Structure             |                
   |         Orbital         Occupation         Energy        |                
   |            3s              2.000           -0.288        |                
   |            3p              1.000           -0.102        |                
   |                                                          |                
   |                 Pseudopotential Definition               |                
   |        Beta     l      e      Rc     scheme   norm       |                
   |          1      0   -0.288   2.192     qc      0         |                
   |          2      0    0.250   2.192     qc      0         |                
   |          3      1   -0.102   2.192     qc      0         |                
   |          4      1    0.250   2.192     qc      0         |                
   |          5      2    0.000   2.000     qc      0         |                
   |          6      2    0.250   2.000     qc      0         |                
   |         loc     3    0.000   2.192     pn      0         |                
   |                                                          |                
   | Augmentation charge Rinner = 1.398                       |                
   | Partial core correction Rc = 1.398                       |                
   ------------------------------------------------------------                
   | "3|2.2|2.2|1.4|4|5|5|30:31:32U2U2"                       |                
   ------------------------------------------------------------                
   |      Author: Chris J. Pickard, Cambridge University      |                
   ============================================================                

 Atomic calculation performed for Ti: 1s2 2s2 2p6 3s2 3p6 3d2 4s2

 Converged in 78 iterations to an ae energy of -23176.516 eV

   ============================================================                
   | Pseudopotential Report - Date of generation 11-12-2019   |                
   ------------------------------------------------------------                
   | Element: Ti Ionic charge: 12.00 Level of theory: LDA     |                
   | Atomic Solver: Koelling-Harmon                           |                
   |                                                          |                
   |               Reference Electronic Structure             |                
   |         Orbital         Occupation         Energy        |                
   |            3s              2.000           -2.288        |                
   |            3p              6.000           -1.425        |                
   |            4s              2.000           -0.169        |                
   |            3d              2.000           -0.164        |                
   |                                                          |                
   |                 Pseudopotential Definition               |                
   |        Beta     l      e      Rc     scheme   norm       |                
   |          1      0   -2.288   1.793     qc      0         |                
   |          2      0   -0.169   1.793     qc      0         |                
   |          3      0    0.250   1.793     qc      0         |                
   |          4      1   -1.425   1.793     qc      0         |                
   |          5      1    0.250   1.793     qc      0         |                
   |          6      2   -0.164   1.793     qc      0         |                
   |          7      2    0.250   1.793     qc      0         |                
   |         loc     3    0.000   1.793     pn      0         |                
   |                                                          |                
   | Augmentation charge Rinner = 1.263                       |                
   | Partial core correction Rc = 1.263                       |                
   ------------------------------------------------------------                
   | "3|1.8|9|10|11|30U:40:31:32(qc=5.5)"                     |                
   ------------------------------------------------------------                
   |      Author: Chris J. Pickard, Cambridge University      |                
   ============================================================                

 Pseudo atomic calculation performed for Al 3s2 3p1

 Converged in 15 iterations to a total energy of -105.5951 eV


 Pseudo atomic calculation performed for Ti 3s2 3p6 3d2 4s2

 Converged in 31 iterations to a total energy of -1585.9719 eV

 Calculation parallelised over 40 processes.
 Data is distributed by k-point(40-way)

 ************************************ Title ************************************
 

 ***************************** General Parameters ******************************
  
 output verbosity                               : normal  (1)
 write checkpoint data to                       : castep.check
 type of calculation                            : single point energy
 stress calculation                             : on
 density difference calculation                 : off
 electron localisation func (ELF) calculation   : off
 Hirshfeld analysis                             : off
 unlimited duration calculation
 timing information                             : on
 memory usage estimate                          : on
 write final potential to formatted file        : off
 write final density to formatted file          : off
 write BibTeX reference list                    : on
 write OTFG pseudopotential files               : on
 write electrostatic potential file             : on
 write bands file                               : on
 checkpoint writing                             : off
  
 output         length unit                     : A
 output           mass unit                     : amu
 output           time unit                     : ps
 output         charge unit                     : e
 output           spin unit                     : hbar/2
 output         energy unit                     : eV
 output          force unit                     : eV/A
 output       velocity unit                     : A/ps
 output       pressure unit                     : GPa
 output     inv_length unit                     : 1/A
 output      frequency unit                     : cm-1
 output force constant unit                     : eV/A**2
 output         volume unit                     : A**3
 output   IR intensity unit                     : (D/A)**2/amu
 output         dipole unit                     : D
 output         efield unit                     : eV/A/e
 output        entropy unit                     : J/mol/K
  
 wavefunctions paging                           : none
 random number generator seed                   : randomised (232958123)
 data distribution                              : optimal for this architecture
 optimization strategy                          : balance speed and memory

 *********************** Exchange-Correlation Parameters ***********************
  
 using functional                               : Local Density Approximation
 relativistic treatment                         : Koelling-Harmon
 DFT+D: Semi-empirical dispersion correction    : off

 ************************* Pseudopotential Parameters **************************
  
 pseudopotential representation                 : reciprocal space
 <beta|phi> representation                      : reciprocal space
 spin-orbit coupling                            : off

 **************************** Basis Set Parameters *****************************
  
 plane wave basis set cut-off                   :   500.0000   eV
 size of standard grid                          :     1.7500
 size of   fine   gmax                          :    20.0476   1/A
 finite basis set correction                    : automatic
 number of sample energies                      :          3
           sample  spacing                      :     5.0000   eV

 **************************** Electronic Parameters ****************************
  
 number of  electrons                           :  168.0    
 net charge of system                           :  0.000    
 treating system as non-spin-polarized
 number of bands                                :        101

 ********************* Electronic Minimization Parameters **********************
  
 Method: Treating system as metallic with density mixing treatment of electrons,
         and number of  SD  steps               :          1
         and number of  CG  steps               :          4
  
 total energy / atom convergence tol.           : 0.1000E-04   eV
 eigen-energy convergence tolerance             : 0.1000E-05   eV
 max force / atom convergence tol.              : ignored
 convergence tolerance window                   :          3   cycles
 max. number of SCF cycles                      :        250
 number of fixed-spin iterations                :         10
 smearing scheme                                : Gaussian
 smearing width                                 : 0.1000       eV
 Fermi energy convergence tolerance             : 0.2721E-13   eV
 periodic dipole correction                     : NONE

 ************************** Density Mixing Parameters **************************
  
 density-mixing scheme                          : Pulay
 max. length of mixing history                  :         20
 charge density mixing amplitude                : 0.8000    
 cut-off energy for mixing                      :  500.0       eV

 *********************** Population Analysis Parameters ************************
  
 Population analysis with cutoff                :  3.000       A

 *******************************************************************************
  

                           -------------------------------
                                      Unit Cell
                           -------------------------------
        Real Lattice(A)                      Reciprocal Lattice(1/A)
  10.0058820   0.0079990   0.0022210        0.6280577  -0.2992097   0.5886757
   4.3017470   9.0339740   0.0022210       -0.0006868   0.6956886   0.5886758
  -7.1526280  -4.5202370   5.3336060       -0.0002612  -0.0001651   1.1775467

                       Lattice parameters(A)       Cell Angles
                    a =   10.005885          alpha =  135.672917
                    b =   10.005884          beta  =  135.672918
                    c =   10.001999          gamma =   64.491601

                       Current cell volume =  482.137121       A**3
                                   density =    2.137344   AMU/A**3
                                           =    3.549143     g/cm^3

                           -------------------------------
                                     Cell Contents
                           -------------------------------
                         Total number of ions in cell =   32
                      Total number of species in cell =    2
                        Max number of any one species =   24

            xxxxxxxxxxxxxxxxxxxxxxxxxxxxxxxxxxxxxxxxxxxxxxxxxxxxxxxxxxxx
            x  Element    Atom        Fractional coordinates of atoms  x
            x            Number           u          v          w      x
            x----------------------------------------------------------x
            x  Al           1         0.249998   0.250000   1.000000   x 
            x  Al           2         0.749998   0.250000   1.000000   x 
            x  Al           3         0.249998   0.750000   1.000000   x 
            x  Al           4         0.749998   0.750000   1.000000   x 
            x  Al           5         0.249998   0.250000   0.500000   x 
            x  Al           6         0.749997   0.250000   0.500000   x 
            x  Al           7         0.249998   0.750000   0.500000   x 
            x  Al           8         0.749998   0.750000   0.500000   x 
            x  Al           9         0.375003   0.124994   0.250000   x 
            x  Al          10         0.875003   0.124994   0.250000   x 
            x  Al          11         0.375004   0.624994   0.250000   x 
            x  Al          12         0.875003   0.624994   0.250000   x 
            x  Al          13         0.375004   0.124994   0.750000   x 
            x  Al          14         0.875004   0.124994   0.750000   x 
            x  Al          15         0.375004   0.624994   0.750000   x 
            x  Al          16         0.875004   0.624994   0.750000   x 
            x  Al          17         0.124991   0.375006   0.250000   x 
            x  Al          18         0.624992   0.375006   0.250000   x 
            x  Al          19         0.124991   0.875006   0.250000   x 
            x  Al          20         0.624991   0.875006   0.250000   x 
            x  Al          21         0.124991   0.375006   0.750000   x 
            x  Al          22         0.624992   0.375006   0.750000   x 
            x  Al          23         0.124992   0.875006   0.750000   x 
            x  Al          24         0.624992   0.875006   0.750000   x 
            x  Ti           1         1.000997   1.000000   1.000000   x 
            x  Ti           2         0.499998   1.000000   1.000000   x 
            x  Ti           3         0.999998   0.500000   1.000000   x 
            x  Ti           4         0.499998   0.500000   1.000000   x 
            x  Ti           5         0.999997   1.000000   0.500000   x 
            x  Ti           6         0.499998   1.000000   0.500000   x 
            x  Ti           7         0.999997   0.500000   0.500000   x 
            x  Ti           8         0.499997   0.500000   0.500000   x 
            xxxxxxxxxxxxxxxxxxxxxxxxxxxxxxxxxxxxxxxxxxxxxxxxxxxxxxxxxxxx


                         No user defined ionic velocities

                           -------------------------------
                                   Details of Species
                           -------------------------------

                               Mass of species in AMU
                                    Al   26.9815400
                                    Ti   47.8670000

                          Electric Quadrupole Moment (Barn)
                                    Al    0.1466000 Isotope 27
                                    Ti    0.3020000 Isotope 47

                          Files used for pseudopotentials:
                                    Al 3|2.2|2.2|1.4|4|5|5|30:31:32U2U2
                                    Ti 3|1.8|9|10|11|30U:40:31:32(qc=5.5)

                           -------------------------------
                              k-Points For BZ Sampling
                           -------------------------------
                       MP grid size for SCF calculation is  4  4  5
                            with an offset of   0.000  0.000  0.000
                       Number of kpoints used =            40

                           -------------------------------
                               Symmetry and Constraints
                           -------------------------------

                      Maximum deviation from symmetry =  0.00000         ANG

                      Number of symmetry operations   =           1
                      Number of ionic constraints     =           3
                      Point group of crystal =     1: C1, 1, 1
                      Space group of crystal =     1: P1, P 1

             Set iprint > 1 for details on symmetry rotations/translations

                         Centre of mass is constrained
             Set iprint > 1 for details of linear ionic constraints

                         Number of cell constraints= 0
                         Cell constraints are:  1 2 3 4 5 6

                         External pressure/stress (GPa)
                          0.00000   0.00000   0.00000
                                    0.00000   0.00000
                                              0.00000
  
+---------------- MEMORY AND SCRATCH DISK ESTIMATES PER PROCESS --------------+
|                                                     Memory          Disk    |
| Baseline code, static data and system overhead      171.0 MB         0.0 MB |
| BLAS internal memory storage                          0.0 MB         0.0 MB |
| Model and support data                              218.3 MB       733.6 MB |
| Electronic energy minimisation requirements         156.3 MB         0.0 MB |
| Force calculation requirements                       38.0 MB         0.0 MB |
| Stress calculation requirements                      42.0 MB         0.0 MB |
|                                               ----------------------------- |
| Approx. total storage required per process          545.5 MB       733.6 MB |
|                                                                             |
| Requirements will fluctuate during execution and may exceed these estimates |
+-----------------------------------------------------------------------------+
Calculating finite basis set correction with  3 cut-off energies.
Calculating total energy with cut-off of  490.000 eV.
------------------------------------------------------------------------ <-- SCF
SCF loop      Energy           Fermi           Energy gain       Timer   <-- SCF
                               energy          per atom          (sec)   <-- SCF
------------------------------------------------------------------------ <-- SCF
Initial  -1.09427046E+004  0.00000000E+000                        30.63  <-- SCF
      1  -1.48926380E+004  9.36493731E+000   1.23435416E+002      57.60  <-- SCF
      2  -1.53730614E+004  6.62094690E+000   1.50132333E+001      77.60  <-- SCF
      3  -1.53984571E+004  6.49426092E+000   7.93614837E-001      99.54  <-- SCF
      4  -1.53976544E+004  6.50237085E+000  -2.50832780E-002     132.25  <-- SCF
      5  -1.53976603E+004  6.55656298E+000   1.84826097E-004     159.10  <-- SCF
      6  -1.53976169E+004  6.51365403E+000  -1.35876788E-003     184.56  <-- SCF
      7  -1.53976104E+004  6.48705187E+000  -2.02600506E-004     214.79  <-- SCF
      8  -1.53976012E+004  6.50962999E+000  -2.86674767E-004     240.31  <-- SCF
      9  -1.53976012E+004  6.50981456E+000   6.81572868E-009     262.79  <-- SCF
     10  -1.53976012E+004  6.50926723E+000  -1.17214766E-006     282.89  <-- SCF
     11  -1.53976012E+004  6.50916235E+000  -6.76210347E-008     302.81  <-- SCF
------------------------------------------------------------------------ <-- SCF
 
Final energy, E             =  -15397.54092278     eV
Final free energy (E-TS)    =  -15397.60117035     eV
(energies not corrected for finite basis set)
 
NB est. 0K energy (E-0.5TS)      =  -15397.57104656     eV
 
Calculating total energy with cut-off of  495.000 eV.
------------------------------------------------------------------------ <-- SCF
SCF loop      Energy           Fermi           Energy gain       Timer   <-- SCF
                               energy          per atom          (sec)   <-- SCF
------------------------------------------------------------------------ <-- SCF
Initial  -1.53975409E+004  0.00000000E+000                       321.59  <-- SCF
      1  -1.53976015E+004  6.50789634E+000   1.89371107E-003     342.75  <-- SCF
      2  -1.53976015E+004  6.50789618E+000   2.10610869E-007     362.61  <-- SCF
      3  -1.53976034E+004  6.51129311E+000   5.80032464E-005     387.52  <-- SCF
      4  -1.53976014E+004  6.51002279E+000  -6.17113972E-005     411.75  <-- SCF
      5  -1.53976014E+004  6.50891677E+000   4.22412379E-008     431.69  <-- SCF
      6  -1.53976014E+004  6.50872575E+000   1.36906123E-007     450.90  <-- SCF
------------------------------------------------------------------------ <-- SCF
 
Final energy, E             =  -15397.54113047     eV
Final free energy (E-TS)    =  -15397.60140114     eV
(energies not corrected for finite basis set)
 
NB est. 0K energy (E-0.5TS)      =  -15397.57126580     eV
 
Calculating total energy with cut-off of  500.000 eV.
------------------------------------------------------------------------ <-- SCF
SCF loop      Energy           Fermi           Energy gain       Timer   <-- SCF
                               energy          per atom          (sec)   <-- SCF
------------------------------------------------------------------------ <-- SCF
Initial  -1.53975411E+004  0.00000000E+000                       469.73  <-- SCF
      1  -1.53976018E+004  6.50849716E+000   1.89531030E-003     490.84  <-- SCF
      2  -1.53976018E+004  6.50849700E+000   1.68044613E-007     510.14  <-- SCF
      3  -1.53976037E+004  6.51001636E+000   6.12304732E-005     535.11  <-- SCF
      4  -1.53976016E+004  6.50946696E+000  -6.53238139E-005     559.95  <-- SCF
      5  -1.53976017E+004  6.50893763E+000   5.47636868E-007     580.14  <-- SCF
      6  -1.53976017E+004  6.50873357E+000   4.06645774E-008     599.68  <-- SCF
------------------------------------------------------------------------ <-- SCF
 
Final energy, E             =  -15397.54139355     eV
Final free energy (E-TS)    =  -15397.60166328     eV
(energies not corrected for finite basis set)
 
NB est. 0K energy (E-0.5TS)      =  -15397.57152842     eV
 
 For future reference: finite basis dEtot/dlog(Ecut) =      -0.024310eV
 Total energy corrected for finite basis set =  -15397.601662 eV

 ******************* Unconstrained Forces *******************
 *                                                          *
 *               Cartesian components (eV/A)                *
 * -------------------------------------------------------- *
 *                         x            y            z      *
 *                                                          *
 * Al              1      0.00042     -0.00001      0.00003 *
 * Al              2      0.00910     -0.01354      0.00031 *
 * Al              3      0.00926     -0.01390     -0.00031 *
 * Al              4      0.00040      0.00008      0.00000 *
 * Al              5      0.00066     -0.00030      0.00001 *
 * Al              6     -0.00187     -0.00142     -0.00005 *
 * Al              7     -0.00183     -0.00142      0.00009 *
 * Al              8      0.00093     -0.00076     -0.00001 *
 * Al              9      0.00997      0.00200      0.00304 *
 * Al             10      0.00906      0.00190     -0.00279 *
 * Al             11      0.00020      0.00183      0.00115 *
 * Al             12      0.00044      0.00185     -0.00107 *
 * Al             13      0.00114      0.00093      0.00004 *
 * Al             14      0.00400      0.00496     -0.00250 *
 * Al             15      0.00143      0.00123     -0.00004 *
 * Al             16      0.00377      0.00451      0.00232 *
 * Al             17      0.00511      0.00260      0.00269 *
 * Al             18      0.00301     -0.00132      0.00014 *
 * Al             19      0.00485      0.00221     -0.00250 *
 * Al             20      0.00321     -0.00105     -0.00017 *
 * Al             21      0.00182     -0.00017     -0.00125 *
 * Al             22      0.00212     -0.00008      0.00128 *
 * Al             23      0.01129     -0.00068     -0.00329 *
 * Al             24      0.01027     -0.00071      0.00289 *
 * Ti              1     -0.11566      0.00156      0.00022 *
 * Ti              2      0.00806      0.00015      0.00004 *
 * Ti              3      0.00349      0.00230      0.00002 *
 * Ti              4      0.00150     -0.00029     -0.00005 *
 * Ti              5      0.00533      0.00202     -0.00226 *
 * Ti              6      0.00155      0.00178     -0.00238 *
 * Ti              7      0.00163      0.00173      0.00224 *
 * Ti              8      0.00532      0.00200      0.00217 *
 *                                                          *
 ************************************************************

 ******************** Constrained Forces ********************
 *                                                          *
 *               Cartesian components (eV/A)                *
 * -------------------------------------------------------- *
 *                         x            y            z      *
 *                                                          *
 * Al              1      0.00042     -0.00001      0.00003 *
 * Al              2      0.00910     -0.01354      0.00031 *
 * Al              3      0.00926     -0.01390     -0.00031 *
 * Al              4      0.00040      0.00008      0.00000 *
 * Al              5      0.00066     -0.00030      0.00001 *
 * Al              6     -0.00187     -0.00142     -0.00005 *
 * Al              7     -0.00183     -0.00142      0.00009 *
 * Al              8      0.00093     -0.00076     -0.00001 *
 * Al              9      0.00997      0.00200      0.00304 *
 * Al             10      0.00906      0.00190     -0.00279 *
 * Al             11      0.00020      0.00183      0.00115 *
 * Al             12      0.00044      0.00185     -0.00107 *
 * Al             13      0.00114      0.00093      0.00004 *
 * Al             14      0.00400      0.00496     -0.00250 *
 * Al             15      0.00143      0.00123     -0.00004 *
 * Al             16      0.00377      0.00451      0.00232 *
 * Al             17      0.00511      0.00260      0.00269 *
 * Al             18      0.00301     -0.00132      0.00014 *
 * Al             19      0.00485      0.00221     -0.00250 *
 * Al             20      0.00321     -0.00105     -0.00017 *
 * Al             21      0.00182     -0.00017     -0.00125 *
 * Al             22      0.00212     -0.00008      0.00128 *
 * Al             23      0.01129     -0.00068     -0.00329 *
 * Al             24      0.01027     -0.00071      0.00289 *
 * Ti              1     -0.11566      0.00156      0.00022 *
 * Ti              2      0.00806      0.00015      0.00004 *
 * Ti              3      0.00349      0.00230      0.00002 *
 * Ti              4      0.00150     -0.00029     -0.00005 *
 * Ti              5      0.00533      0.00202     -0.00226 *
 * Ti              6      0.00155      0.00178     -0.00238 *
 * Ti              7      0.00163      0.00173      0.00224 *
 * Ti              8      0.00532      0.00200      0.00217 *
 *                                                          *
 ************************************************************

 ***************** Stress Tensor *****************
 *                                               *
 *          Cartesian components (GPa)           *
 * --------------------------------------------- *
 *             x             y             z     *
 *                                               *
 *  x     -0.587541     -0.012988      0.125781  *
 *  y     -0.012988     -0.574740      0.079436  *
 *  z      0.125781      0.079436     -0.517866  *
 *                                               *
 *  Pressure:    0.5600                          *
 *                                               *
 *************************************************

 Pseudo atomic calculation performed for Al 3s2 3p1

 Converged in 15 iterations to a total energy of -105.5951 eV


 Pseudo atomic calculation performed for Ti 3s2 3p6 3d2 4s2

 Converged in 31 iterations to a total energy of -1585.9719 eV

Charge spilling parameter for spin component 1 = 0.51%

     Atomic Populations (Mulliken)
     -----------------------------
Species          Ion     s      p      d      f     Total  Charge (e)
=====================================================================
  Al              1     1.02   1.87   0.00   0.00   2.89     0.11
  Al              2     1.02   1.87   0.00   0.00   2.89     0.11
  Al              3     1.02   1.87   0.00   0.00   2.89     0.11
  Al              4     1.02   1.87   0.00   0.00   2.89     0.11
  Al              5     1.02   1.87   0.00   0.00   2.89     0.11
  Al              6     1.02   1.87   0.00   0.00   2.89     0.11
  Al              7     1.02   1.87   0.00   0.00   2.89     0.11
  Al              8     1.02   1.87   0.00   0.00   2.89     0.11
  Al              9     0.99   2.09   0.00   0.00   3.08    -0.08
  Al             10     0.99   2.09   0.00   0.00   3.08    -0.08
  Al             11     0.99   2.09   0.00   0.00   3.08    -0.08
  Al             12     0.99   2.09   0.00   0.00   3.08    -0.08
  Al             13     0.99   2.09   0.00   0.00   3.08    -0.08
  Al             14     0.99   2.09   0.00   0.00   3.08    -0.08
  Al             15     0.99   2.09   0.00   0.00   3.08    -0.08
  Al             16     0.99   2.09   0.00   0.00   3.08    -0.08
  Al             17     0.99   2.09   0.00   0.00   3.08    -0.08
  Al             18     0.99   2.09   0.00   0.00   3.08    -0.08
  Al             19     0.99   2.09   0.00   0.00   3.08    -0.08
  Al             20     0.99   2.09   0.00   0.00   3.08    -0.08
  Al             21     0.99   2.09   0.00   0.00   3.08    -0.08
  Al             22     0.99   2.09   0.00   0.00   3.08    -0.08
  Al             23     0.99   2.09   0.00   0.00   3.08    -0.08
  Al             24     0.99   2.09   0.00   0.00   3.08    -0.08
  Ti              1     2.19   6.70   3.06   0.00  11.95     0.05
  Ti              2     2.19   6.70   3.06   0.00  11.95     0.05
  Ti              3     2.19   6.70   3.06   0.00  11.95     0.05
  Ti              4     2.19   6.70   3.06   0.00  11.95     0.05
  Ti              5     2.19   6.70   3.06   0.00  11.95     0.05
  Ti              6     2.19   6.70   3.06   0.00  11.95     0.05
  Ti              7     2.19   6.70   3.06   0.00  11.95     0.05
  Ti              8     2.19   6.70   3.06   0.00  11.95     0.05
=====================================================================

                 Bond                   Population      Length (A)
======================================================================
             Al 3  -- Ti 1                   0.29        2.66401
             Al 1  -- Ti 8                   0.29        2.66791
             Al 6  -- Ti 2                   0.29        2.66791
             Al 4  -- Ti 5                   0.29        2.66791
             Al 7  -- Ti 3                   0.29        2.66791
             Al 2  -- Ti 7                   0.29        2.66791
             Al 3  -- Ti 7                   0.29        2.66791
             Al 5  -- Ti 4                   0.29        2.66791
             Al 9  -- Al 23                  0.39        2.66791
             Al 16 -- Al 19                  0.40        2.66791
             Al 15 -- Al 20                  0.40        2.66791
             Al 10 -- Al 21                  0.40        2.66791
             Al 14 -- Al 17                  0.40        2.66791
             Al 11 -- Al 24                  0.40        2.66791
             Al 16 -- Al 18                  0.40        2.66791
             Al 12 -- Al 22                  0.40        2.66791
             Al 7  -- Ti 2                   0.29        2.66791
             Al 3  -- Ti 6                   0.29        2.66791
             Al 2  -- Ti 6                   0.29        2.66791
             Al 8  -- Ti 4                   0.29        2.66791
             Al 1  -- Ti 5                   0.29        2.66791
             Al 6  -- Ti 3                   0.29        2.66791
             Al 4  -- Ti 8                   0.29        2.66791
             Al 10 -- Al 24                  0.40        2.66791
             Al 13 -- Al 18                  0.40        2.66791
             Al 12 -- Al 23                  0.40        2.66791
             Al 9  -- Al 22                  0.40        2.66791
             Al 14 -- Al 20                  0.40        2.66791
             Al 11 -- Al 21                  0.40        2.66791
             Al 15 -- Al 17                  0.40        2.66791
             Al 13 -- Al 19                  0.40        2.66791
             Al 5  -- Ti 1                   0.29        2.66793
             Al 8  -- Ti 1                   0.29        2.66794
             Al 11 -- Al 18                  0.39        2.66920
             Al 16 -- Al 21                  0.39        2.66920
             Al 13 -- Al 24                  0.39        2.66920
             Al 9  -- Al 20                  0.39        2.66920
             Al 14 -- Al 23                  0.39        2.66920
             Al 12 -- Al 17                  0.39        2.66920
             Al 15 -- Al 22                  0.39        2.66920
             Al 10 -- Al 19                  0.39        2.66920
             Al 1  -- Ti 2                   0.29        2.66933
             Al 3  -- Ti 4                   0.29        2.66933
             Al 6  -- Ti 5                   0.29        2.66933
             Al 8  -- Ti 6                   0.29        2.66933
             Al 8  -- Ti 7                   0.29        2.66933
             Al 7  -- Ti 8                   0.29        2.66933
             Al 2  -- Ti 4                   0.29        2.66933
             Al 7  -- Ti 5                   0.29        2.66933
             Al 6  -- Ti 8                   0.29        2.66933
             Al 1  -- Ti 3                   0.29        2.66933
             Al 5  -- Ti 7                   0.29        2.66933
             Al 4  -- Ti 3                   0.29        2.66933
             Al 5  -- Ti 6                   0.29        2.66933
             Al 4  -- Ti 2                   0.29        2.66933
             Al 16 -- Al 24                  0.39        2.66946
             Al 15 -- Al 23                  0.39        2.66946
             Al 14 -- Al 22                  0.39        2.66946
             Al 10 -- Al 18                  0.39        2.66946
             Al 9  -- Al 17                  0.39        2.66946
             Al 12 -- Al 20                  0.39        2.66946
             Al 11 -- Al 19                  0.39        2.66946
             Al 13 -- Al 21                  0.39        2.66946
             Al 2  -- Ti 1                   0.29        2.67468
             Al 23 -- Ti 1                   0.16        2.82555
             Al 9  -- Ti 1                   0.16        2.82666
             Al 14 -- Ti 1                   0.16        2.83059
             Al 17 -- Ti 1                   0.16        2.83169
             Al 22 -- Ti 4                   0.16        2.83437
             Al 13 -- Ti 6                   0.16        2.83437
             Al 16 -- Ti 7                   0.16        2.83437
             Al 21 -- Ti 7                   0.16        2.83437
             Al 10 -- Ti 5                   0.16        2.83437
             Al 24 -- Ti 6                   0.16        2.83437
             Al 15 -- Ti 4                   0.16        2.83437
             Al 13 -- Ti 2                   0.16        2.83437
             Al 19 -- Ti 5                   0.16        2.83437
             Al 15 -- Ti 8                   0.16        2.83437
             Al 21 -- Ti 3                   0.16        2.83437
             Al 20 -- Ti 6                   0.16        2.83437
             Al 17 -- Ti 3                   0.16        2.83437
             Al 11 -- Ti 8                   0.16        2.83437
             Al 20 -- Ti 2                   0.16        2.83437
             Al 16 -- Ti 3                   0.16        2.83437
             Al 9  -- Ti 6                   0.16        2.83437
             Al 23 -- Ti 5                   0.16        2.83437
             Al 22 -- Ti 8                   0.16        2.83437
             Al 12 -- Ti 3                   0.16        2.83437
             Al 18 -- Ti 8                   0.16        2.83437
             Al 9  -- Ti 2                   0.16        2.83437
             Al 18 -- Ti 4                   0.16        2.83437
             Al 12 -- Ti 7                   0.16        2.83437
             Al 24 -- Ti 2                   0.16        2.83437
             Al 17 -- Ti 7                   0.16        2.83437
             Al 11 -- Ti 4                   0.16        2.83437
             Al 14 -- Ti 5                   0.16        2.83437
             Al 4  -- Al 12                  0.11        2.83443
             Al 2  -- Al 10                  0.11        2.83443
             Al 7  -- Al 19                  0.11        2.83443
             Al 8  -- Al 20                  0.11        2.83443
             Al 2  -- Al 18                  0.11        2.83443
             Al 7  -- Al 11                  0.11        2.83443
             Al 5  -- Al 21                  0.11        2.83443
             Al 8  -- Al 24                  0.11        2.83443
             Al 6  -- Al 10                  0.11        2.83443
             Al 3  -- Al 15                  0.11        2.83443
             Al 1  -- Al 9                   0.11        2.83443
             Al 5  -- Al 13                  0.11        2.83443
             Al 2  -- Al 22                  0.11        2.83443
             Al 3  -- Al 11                  0.11        2.83443
             Al 5  -- Al 17                  0.11        2.83443
             Al 4  -- Al 24                  0.11        2.83443
             Al 7  -- Al 15                  0.11        2.83443
             Al 6  -- Al 14                  0.11        2.83443
             Al 2  -- Al 14                  0.11        2.83443
             Al 4  -- Al 16                  0.11        2.83443
             Al 8  -- Al 12                  0.11        2.83443
             Al 7  -- Al 23                  0.11        2.83443
             Al 5  -- Al 9                   0.11        2.83443
             Al 1  -- Al 13                  0.11        2.83443
             Al 6  -- Al 22                  0.11        2.83443
             Al 6  -- Al 18                  0.11        2.83443
             Al 8  -- Al 16                  0.11        2.83443
             Al 3  -- Al 23                  0.11        2.83443
             Al 1  -- Al 21                  0.11        2.83443
             Al 3  -- Al 19                  0.11        2.83443
             Al 4  -- Al 20                  0.11        2.83443
             Al 1  -- Al 17                  0.11        2.83443
             Al 4  -- Al 19                  0.11        2.83542
             Al 8  -- Al 14                  0.11        2.83542
             Al 3  -- Al 20                  0.11        2.83542
             Al 1  -- Al 18                  0.11        2.83542
             Al 7  -- Al 13                  0.11        2.83542
             Al 6  -- Al 20                  0.11        2.83542
             Al 3  -- Al 21                  0.11        2.83542
             Al 1  -- Al 23                  0.11        2.83542
             Al 2  -- Al 12                  0.11        2.83542
             Al 2  -- Al 17                  0.11        2.83542
             Al 1  -- Al 11                  0.11        2.83542
             Al 3  -- Al 9                   0.11        2.83542
             Al 4  -- Al 10                  0.11        2.83542
             Al 2  -- Al 13                  0.11        2.83542
             Al 6  -- Al 16                  0.11        2.83542
             Al 8  -- Al 18                  0.11        2.83542
             Al 5  -- Al 15                  0.11        2.83542
             Al 4  -- Al 22                  0.11        2.83542
             Al 7  -- Al 17                  0.11        2.83542
             Al 8  -- Al 23                  0.11        2.83542
             Al 6  -- Al 9                   0.11        2.83542
             Al 5  -- Al 22                  0.11        2.83542
             Al 5  -- Al 10                  0.11        2.83542
             Al 3  -- Al 16                  0.11        2.83542
             Al 7  -- Al 12                  0.11        2.83542
             Al 7  -- Al 24                  0.11        2.83542
             Al 4  -- Al 15                  0.11        2.83542
             Al 6  -- Al 21                  0.11        2.83542
             Al 8  -- Al 11                  0.11        2.83542
             Al 2  -- Al 24                  0.11        2.83542
             Al 5  -- Al 19                  0.11        2.83542
             Al 1  -- Al 14                  0.11        2.83542
             Al 19 -- Ti 3                   0.16        2.83548
             Al 20 -- Ti 4                   0.16        2.83548
             Al 21 -- Ti 5                   0.16        2.83548
             Al 18 -- Ti 2                   0.16        2.83548
             Al 22 -- Ti 6                   0.16        2.83548
             Al 10 -- Ti 7                   0.16        2.83548
             Al 9  -- Ti 8                   0.16        2.83548
             Al 11 -- Ti 6                   0.16        2.83548
             Al 12 -- Ti 5                   0.16        2.83548
             Al 15 -- Ti 2                   0.16        2.83548
             Al 14 -- Ti 6                   0.16        2.83548
             Al 23 -- Ti 2                   0.16        2.83548
             Al 12 -- Ti 4                   0.16        2.83548
             Al 11 -- Ti 3                   0.16        2.83548
             Al 10 -- Ti 2                   0.16        2.83548
             Al 18 -- Ti 7                   0.16        2.83548
             Al 17 -- Ti 8                   0.16        2.83548
             Al 24 -- Ti 8                   0.16        2.83548
             Al 14 -- Ti 3                   0.16        2.83548
             Al 23 -- Ti 7                   0.16        2.83548
             Al 13 -- Ti 4                   0.16        2.83548
             Al 13 -- Ti 5                   0.16        2.83548
             Al 15 -- Ti 7                   0.16        2.83548
             Al 16 -- Ti 8                   0.16        2.83548
             Al 22 -- Ti 3                   0.16        2.83548
             Al 20 -- Ti 5                   0.16        2.83548
             Al 21 -- Ti 4                   0.16        2.83548
             Al 19 -- Ti 6                   0.16        2.83548
             Al 19 -- Ti 1                   0.16        2.83818
             Al 16 -- Ti 1                   0.16        2.83929
             Al 10 -- Ti 1                   0.16        2.84320
             Al 24 -- Ti 1                   0.16        2.84431
======================================================================

 
 A BibTeX formatted list of references used in this run has been written to 
 castep.bib
 
Initialisation time =     15.34 s
Calculation time    =   1079.62 s
Finalisation time   =      1.59 s
Total time          =   1096.55 s
Peak Memory Use     = 1669048 kB
  
Overall parallel efficiency rating: Excellent (96%)                             
  
Data was distributed by:-
k-point (40-way); efficiency rating: Excellent (96%)                            
 +-------------------------------------------------+
 |                                                 |
 |      CCC   AA    SSS  TTTTT  EEEEE  PPPP        |
 |     C     A  A  S       T    E      P   P       |
 |     C     AAAA   SS     T    EEE    PPPP        |
 |     C     A  A     S    T    E      P           |
 |      CCC  A  A  SSS     T    EEEEE  P           |
 |                                                 |
 +-------------------------------------------------+
 |                                                 |
 | Welcome to Academic Release CASTEP version 17.21|          
 | Ab Initio Total Energy Program                  |
 |                                                 |
 | Authors:                                        |
 | M. Segall, M. Probert, C. Pickard, P. Hasnip,   |
 | S. Clark, K. Refson, J. R. Yates, M. Payne      |
 |                                                 |
 | Contributors:                                   |
 | P. Lindan, P. Haynes, J. White, V. Milman,      |
 | N. Govind, M. Gibson, P. Tulip, V. Cocula,      |
 | B. Montanari, D. Quigley, M. Glover,            |
 | L. Bernasconi, A. Perlov, M. Plummer,           |
 | E. McNellis, J. Meyer, J. Gale, D. Jochym       |
 | J. Aarons, B. Walker, R. Gillen, D. Jones       |
 | T. Green, I. J. Bush, C. J. Armstrong,          |
 | E. J. Higgins, E. L. Brown, M. S. McFly,        |
 | J. Wilkins, B-C. Shih, P. J. P. Byrne           |
 |                                                 |
 | Copyright (c) 2000 - 2017                       |
 |                                                 |
 |     Distributed under the terms of an           |
 |     Agreement between the United Kingdom        |
 |     Car-Parrinello (UKCP) Consortium,           |
 |     Daresbury Laboratory and Accelrys, Inc.     |
 |                                                 |
 | Please cite                                     |
 |                                                 |
 |     "First principles methods using CASTEP"     |
 |                                                 |
 |         Zeitschrift fuer Kristallographie       |
 |           220(5-6) pp. 567-570 (2005)           |
 |                                                 |
 | S. J. Clark, M. D. Segall, C. J. Pickard,       |
 | P. J. Hasnip, M. J. Probert, K. Refson,         |
 | M. C. Payne                                     |
 |                                                 |
 |       in all publications arising from          |
 |              your use of CASTEP                 |
 |                                                 |
 +-------------------------------------------------+


 Compiled for linux_x86_64_gfortran6.0-XT on Fri, 21 Jul 2017 10:20:05 +0100
 from code version 056e886bd5a1+ Castep172_branch Mon, 15 May 2017 14:45:35 +0100
 Compiler: GNU Fortran 6.3.0; Optimisation: fast
 MATHLIBS: Intel MKL(2017.0.0) (LAPACK version 3.6.0)
 FFT Lib : fftw3 version commercial-fftw-3.3.4-sse2-avx
 Fundamental constants values: CODATA 2010

 Run started: Wed, 11 Dec 2019 23:48:34 +0000

 Atomic calculation performed for Al: 1s2 2s2 2p6 3s2 3p1

 Converged in 55 iterations to an ae energy of -6578.725 eV

   ============================================================                
   | Pseudopotential Report - Date of generation 11-12-2019   |                
   ------------------------------------------------------------                
   | Element: Al Ionic charge:  3.00 Level of theory: LDA     |                
   | Atomic Solver: Koelling-Harmon                           |                
   |                                                          |                
   |               Reference Electronic Structure             |                
   |         Orbital         Occupation         Energy        |                
   |            3s              2.000           -0.288        |                
   |            3p              1.000           -0.102        |                
   |                                                          |                
   |                 Pseudopotential Definition               |                
   |        Beta     l      e      Rc     scheme   norm       |                
   |          1      0   -0.288   2.192     qc      0         |                
   |          2      0    0.250   2.192     qc      0         |                
   |          3      1   -0.102   2.192     qc      0         |                
   |          4      1    0.250   2.192     qc      0         |                
   |          5      2    0.000   2.000     qc      0         |                
   |          6      2    0.250   2.000     qc      0         |                
   |         loc     3    0.000   2.192     pn      0         |                
   |                                                          |                
   | Augmentation charge Rinner = 1.398                       |                
   | Partial core correction Rc = 1.398                       |                
   ------------------------------------------------------------                
   | "3|2.2|2.2|1.4|4|5|5|30:31:32U2U2"                       |                
   ------------------------------------------------------------                
   |      Author: Chris J. Pickard, Cambridge University      |                
   ============================================================                

 Atomic calculation performed for Ti: 1s2 2s2 2p6 3s2 3p6 3d2 4s2

 Converged in 78 iterations to an ae energy of -23176.516 eV

   ============================================================                
   | Pseudopotential Report - Date of generation 11-12-2019   |                
   ------------------------------------------------------------                
   | Element: Ti Ionic charge: 12.00 Level of theory: LDA     |                
   | Atomic Solver: Koelling-Harmon                           |                
   |                                                          |                
   |               Reference Electronic Structure             |                
   |         Orbital         Occupation         Energy        |                
   |            3s              2.000           -2.288        |                
   |            3p              6.000           -1.425        |                
   |            4s              2.000           -0.169        |                
   |            3d              2.000           -0.164        |                
   |                                                          |                
   |                 Pseudopotential Definition               |                
   |        Beta     l      e      Rc     scheme   norm       |                
   |          1      0   -2.288   1.793     qc      0         |                
   |          2      0   -0.169   1.793     qc      0         |                
   |          3      0    0.250   1.793     qc      0         |                
   |          4      1   -1.425   1.793     qc      0         |                
   |          5      1    0.250   1.793     qc      0         |                
   |          6      2   -0.164   1.793     qc      0         |                
   |          7      2    0.250   1.793     qc      0         |                
   |         loc     3    0.000   1.793     pn      0         |                
   |                                                          |                
   | Augmentation charge Rinner = 1.263                       |                
   | Partial core correction Rc = 1.263                       |                
   ------------------------------------------------------------                
   | "3|1.8|9|10|11|30U:40:31:32(qc=5.5)"                     |                
   ------------------------------------------------------------                
   |      Author: Chris J. Pickard, Cambridge University      |                
   ============================================================                

 Pseudo atomic calculation performed for Al 3s2 3p1

 Converged in 15 iterations to a total energy of -105.5951 eV


 Pseudo atomic calculation performed for Ti 3s2 3p6 3d2 4s2

 Converged in 31 iterations to a total energy of -1585.9719 eV

 Calculation parallelised over 40 processes.
 Data is distributed by k-point(40-way)

 ************************************ Title ************************************
 

 ***************************** General Parameters ******************************
  
 output verbosity                               : normal  (1)
 write checkpoint data to                       : castep.check
 type of calculation                            : single point energy
 stress calculation                             : on
 density difference calculation                 : off
 electron localisation func (ELF) calculation   : off
 Hirshfeld analysis                             : off
 unlimited duration calculation
 timing information                             : on
 memory usage estimate                          : on
 write final potential to formatted file        : off
 write final density to formatted file          : off
 write BibTeX reference list                    : on
 write OTFG pseudopotential files               : on
 write electrostatic potential file             : on
 write bands file                               : on
 checkpoint writing                             : off
  
 output         length unit                     : A
 output           mass unit                     : amu
 output           time unit                     : ps
 output         charge unit                     : e
 output           spin unit                     : hbar/2
 output         energy unit                     : eV
 output          force unit                     : eV/A
 output       velocity unit                     : A/ps
 output       pressure unit                     : GPa
 output     inv_length unit                     : 1/A
 output      frequency unit                     : cm-1
 output force constant unit                     : eV/A**2
 output         volume unit                     : A**3
 output   IR intensity unit                     : (D/A)**2/amu
 output         dipole unit                     : D
 output         efield unit                     : eV/A/e
 output        entropy unit                     : J/mol/K
  
 wavefunctions paging                           : none
 random number generator seed                   : randomised (234835114)
 data distribution                              : optimal for this architecture
 optimization strategy                          : maximize speed(+++)

 *********************** Exchange-Correlation Parameters ***********************
  
 using functional                               : Local Density Approximation
 relativistic treatment                         : Koelling-Harmon
 DFT+D: Semi-empirical dispersion correction    : off

 ************************* Pseudopotential Parameters **************************
  
 pseudopotential representation                 : reciprocal space
 <beta|phi> representation                      : reciprocal space
 spin-orbit coupling                            : off

 **************************** Basis Set Parameters *****************************
  
 plane wave basis set cut-off                   :   500.0000   eV
 size of standard grid                          :     1.7500
 size of   fine   gmax                          :    20.0476   1/A
 finite basis set correction                    : automatic
 number of sample energies                      :          3
           sample  spacing                      :     5.0000   eV

 **************************** Electronic Parameters ****************************
  
 number of  electrons                           :  168.0    
 net charge of system                           :  0.000    
 treating system as non-spin-polarized
 number of bands                                :        101

 ********************* Electronic Minimization Parameters **********************
  
 Method: Treating system as metallic with density mixing treatment of electrons,
         and number of  SD  steps               :          1
         and number of  CG  steps               :          4
  
 total energy / atom convergence tol.           : 0.1000E-04   eV
 eigen-energy convergence tolerance             : 0.1000E-05   eV
 max force / atom convergence tol.              : ignored
 convergence tolerance window                   :          3   cycles
 max. number of SCF cycles                      :        250
 number of fixed-spin iterations                :         10
 smearing scheme                                : Gaussian
 smearing width                                 : 0.1000       eV
 Fermi energy convergence tolerance             : 0.2721E-13   eV
 periodic dipole correction                     : NONE

 ************************** Density Mixing Parameters **************************
  
 density-mixing scheme                          : Pulay
 max. length of mixing history                  :         20
 charge density mixing amplitude                : 0.8000    
 cut-off energy for mixing                      :  500.0       eV

 *********************** Population Analysis Parameters ************************
  
 Population analysis with cutoff                :  3.000       A

 *******************************************************************************
  

                           -------------------------------
                                      Unit Cell
                           -------------------------------
        Real Lattice(A)                      Reciprocal Lattice(1/A)
  10.0058820   0.0079990   0.0022210        0.6280577  -0.2992097   0.5886757
   4.3017470   9.0339740   0.0022210       -0.0006868   0.6956886   0.5886758
  -7.1526280  -4.5202370   5.3336060       -0.0002612  -0.0001651   1.1775467

                       Lattice parameters(A)       Cell Angles
                    a =   10.005885          alpha =  135.672917
                    b =   10.005884          beta  =  135.672918
                    c =   10.001999          gamma =   64.491601

                       Current cell volume =  482.137121       A**3
                                   density =    2.137344   AMU/A**3
                                           =    3.549143     g/cm^3

                           -------------------------------
                                     Cell Contents
                           -------------------------------
                         Total number of ions in cell =   32
                      Total number of species in cell =    2
                        Max number of any one species =   24

            xxxxxxxxxxxxxxxxxxxxxxxxxxxxxxxxxxxxxxxxxxxxxxxxxxxxxxxxxxxx
            x  Element    Atom        Fractional coordinates of atoms  x
            x            Number           u          v          w      x
            x----------------------------------------------------------x
            x  Al           1         0.249998   0.250000   1.000000   x 
            x  Al           2         0.749998   0.250000   1.000000   x 
            x  Al           3         0.249998   0.750000   1.000000   x 
            x  Al           4         0.749998   0.750000   1.000000   x 
            x  Al           5         0.249998   0.250000   0.500000   x 
            x  Al           6         0.749997   0.250000   0.500000   x 
            x  Al           7         0.249998   0.750000   0.500000   x 
            x  Al           8         0.749998   0.750000   0.500000   x 
            x  Al           9         0.375003   0.124994   0.250000   x 
            x  Al          10         0.875003   0.124994   0.250000   x 
            x  Al          11         0.375004   0.624994   0.250000   x 
            x  Al          12         0.875003   0.624994   0.250000   x 
            x  Al          13         0.375004   0.124994   0.750000   x 
            x  Al          14         0.875004   0.124994   0.750000   x 
            x  Al          15         0.375004   0.624994   0.750000   x 
            x  Al          16         0.875004   0.624994   0.750000   x 
            x  Al          17         0.124991   0.375006   0.250000   x 
            x  Al          18         0.624992   0.375006   0.250000   x 
            x  Al          19         0.124991   0.875006   0.250000   x 
            x  Al          20         0.624991   0.875006   0.250000   x 
            x  Al          21         0.124991   0.375006   0.750000   x 
            x  Al          22         0.624992   0.375006   0.750000   x 
            x  Al          23         0.124992   0.875006   0.750000   x 
            x  Al          24         0.624992   0.875006   0.750000   x 
            x  Ti           1         0.999998   1.000000   1.001000   x 
            x  Ti           2         0.499998   1.000000   1.000000   x 
            x  Ti           3         0.999998   0.500000   1.000000   x 
            x  Ti           4         0.499998   0.500000   1.000000   x 
            x  Ti           5         0.999997   1.000000   0.500000   x 
            x  Ti           6         0.499998   1.000000   0.500000   x 
            x  Ti           7         0.999997   0.500000   0.500000   x 
            x  Ti           8         0.499997   0.500000   0.500000   x 
            xxxxxxxxxxxxxxxxxxxxxxxxxxxxxxxxxxxxxxxxxxxxxxxxxxxxxxxxxxxx


                         No user defined ionic velocities

                           -------------------------------
                                   Details of Species
                           -------------------------------

                               Mass of species in AMU
                                    Al   26.9815400
                                    Ti   47.8670000

                          Electric Quadrupole Moment (Barn)
                                    Al    0.1466000 Isotope 27
                                    Ti    0.3020000 Isotope 47

                          Files used for pseudopotentials:
                                    Al 3|2.2|2.2|1.4|4|5|5|30:31:32U2U2
                                    Ti 3|1.8|9|10|11|30U:40:31:32(qc=5.5)

                           -------------------------------
                              k-Points For BZ Sampling
                           -------------------------------
                       MP grid size for SCF calculation is  4  4  5
                            with an offset of   0.000  0.000  0.000
                       Number of kpoints used =            40

                           -------------------------------
                               Symmetry and Constraints
                           -------------------------------

                      Maximum deviation from symmetry =  0.00000         ANG

                      Number of symmetry operations   =           1
                      Number of ionic constraints     =           3
                      Point group of crystal =     1: C1, 1, 1
                      Space group of crystal =     8: Cm, C -2y

             Set iprint > 1 for details on symmetry rotations/translations

                         Centre of mass is constrained
             Set iprint > 1 for details of linear ionic constraints

                         Number of cell constraints= 0
                         Cell constraints are:  1 2 3 4 5 6

                         External pressure/stress (GPa)
                          0.00000   0.00000   0.00000
                                    0.00000   0.00000
                                              0.00000
  
+---------------- MEMORY AND SCRATCH DISK ESTIMATES PER PROCESS --------------+
|                                                     Memory          Disk    |
| Baseline code, static data and system overhead      171.0 MB         0.0 MB |
| BLAS internal memory storage                          0.0 MB         0.0 MB |
| Model and support data                              949.9 MB         0.0 MB |
| Electronic energy minimisation requirements         156.3 MB         0.0 MB |
| Force calculation requirements                       38.0 MB         0.0 MB |
| Stress calculation requirements                      42.0 MB         0.0 MB |
|                                               ----------------------------- |
| Approx. total storage required per process         1277.1 MB         0.0 MB |
|                                                                             |
| Requirements will fluctuate during execution and may exceed these estimates |
+-----------------------------------------------------------------------------+
Calculating finite basis set correction with  3 cut-off energies.
Calculating total energy with cut-off of  490.000 eV.
------------------------------------------------------------------------ <-- SCF
SCF loop      Energy           Fermi           Energy gain       Timer   <-- SCF
                               energy          per atom          (sec)   <-- SCF
------------------------------------------------------------------------ <-- SCF
Initial  -1.09413616E+004  0.00000000E+000                        29.75  <-- SCF
      1  -1.48954717E+004  9.33409287E+000   1.23565942E+002      50.92  <-- SCF
      2  -1.53733828E+004  6.60395903E+000   1.49347211E+001      65.09  <-- SCF
      3  -1.53984707E+004  6.49593101E+000   7.83998411E-001      81.24  <-- SCF
      4  -1.53976553E+004  6.49976696E+000  -2.54831530E-002     107.99  <-- SCF
      5  -1.53976770E+004  6.56220732E+000   6.77545804E-004     134.44  <-- SCF
      6  -1.53976167E+004  6.51661946E+000  -1.88291079E-003     159.77  <-- SCF
      7  -1.53976100E+004  6.48764061E+000  -2.08818401E-004     185.78  <-- SCF
      8  -1.53976013E+004  6.50958122E+000  -2.73618187E-004     211.19  <-- SCF
      9  -1.53976012E+004  6.50986448E+000  -2.43486092E-006     233.77  <-- SCF
     10  -1.53976012E+004  6.50926053E+000  -8.90493872E-007     253.78  <-- SCF
     11  -1.53976012E+004  6.50913355E+000  -8.19522204E-008     273.79  <-- SCF
------------------------------------------------------------------------ <-- SCF
 
Final energy, E             =  -15397.54091604     eV
Final free energy (E-TS)    =  -15397.60116488     eV
(energies not corrected for finite basis set)
 
NB est. 0K energy (E-0.5TS)      =  -15397.57104046     eV
 
Calculating total energy with cut-off of  495.000 eV.
------------------------------------------------------------------------ <-- SCF
SCF loop      Energy           Fermi           Energy gain       Timer   <-- SCF
                               energy          per atom          (sec)   <-- SCF
------------------------------------------------------------------------ <-- SCF
Initial  -1.53975409E+004  0.00000000E+000                       292.71  <-- SCF
      1  -1.53976017E+004  6.50778450E+000   1.90076712E-003     309.02  <-- SCF
      2  -1.53976017E+004  6.50778438E+000   2.83823833E-007     328.86  <-- SCF
      3  -1.53976079E+004  6.51169611E+000   1.94387260E-004     354.00  <-- SCF
      4  -1.53976014E+004  6.51024964E+000  -2.05081384E-004     379.22  <-- SCF
      5  -1.53976014E+004  6.50895602E+000   3.77460008E-007     399.89  <-- SCF
      6  -1.53976014E+004  6.50872529E+000   3.10573408E-007     419.51  <-- SCF
------------------------------------------------------------------------ <-- SCF
 
Final energy, E             =  -15397.54112136     eV
Final free energy (E-TS)    =  -15397.60139206     eV
(energies not corrected for finite basis set)
 
NB est. 0K energy (E-0.5TS)      =  -15397.57125671     eV
 
Calculating total energy with cut-off of  500.000 eV.
------------------------------------------------------------------------ <-- SCF
SCF loop      Energy           Fermi           Energy gain       Timer   <-- SCF
                               energy          per atom          (sec)   <-- SCF
------------------------------------------------------------------------ <-- SCF
Initial  -1.53975411E+004  0.00000000E+000                       438.37  <-- SCF
      1  -1.53976018E+004  6.50835605E+000   1.89664055E-003     454.06  <-- SCF
      2  -1.53976018E+004  6.50835589E+000   2.25408605E-007     473.64  <-- SCF
      3  -1.53976043E+004  6.51028406E+000   7.71524645E-005     498.89  <-- SCF
      4  -1.53976016E+004  6.50956683E+000  -8.22582162E-005     523.73  <-- SCF
      5  -1.53976016E+004  6.50895593E+000   1.79419403E-007     544.09  <-- SCF
      6  -1.53976017E+004  6.50862940E+000   3.44053541E-007     563.96  <-- SCF
------------------------------------------------------------------------ <-- SCF
 
Final energy, E             =  -15397.54138088     eV
Final free energy (E-TS)    =  -15397.60165638     eV
(energies not corrected for finite basis set)
 
NB est. 0K energy (E-0.5TS)      =  -15397.57151863     eV
 
 For future reference: finite basis dEtot/dlog(Ecut) =      -0.024238eV
 Total energy corrected for finite basis set =  -15397.601655 eV

 ******************* Unconstrained Forces *******************
 *                                                          *
 *               Cartesian components (eV/A)                *
 * -------------------------------------------------------- *
 *                         x            y            z      *
 *                                                          *
 * Al              1     -0.00028     -0.00021      0.00049 *
 * Al              2     -0.00043     -0.00014      0.00078 *
 * Al              3     -0.00032     -0.00032      0.00112 *
 * Al              4     -0.00034     -0.00017     -0.00010 *
 * Al              5     -0.00022     -0.00033      0.01690 *
 * Al              6      0.00182      0.00147      0.00013 *
 * Al              7      0.00212      0.00102      0.00022 *
 * Al              8     -0.00045     -0.00009      0.01625 *
 * Al              9     -0.00700      0.00017     -0.00031 *
 * Al             10     -0.00987     -0.00083      0.00502 *
 * Al             11     -0.00088     -0.00059      0.00011 *
 * Al             12     -0.00268     -0.00012      0.00108 *
 * Al             13     -0.00176      0.00060      0.00123 *
 * Al             14     -0.00701     -0.00615      0.00466 *
 * Al             15     -0.00258      0.00110     -0.00016 *
 * Al             16     -0.00422     -0.00389     -0.00085 *
 * Al             17     -0.00271     -0.00644     -0.00038 *
 * Al             18     -0.00112     -0.00060     -0.00001 *
 * Al             19     -0.00480     -0.00851      0.00511 *
 * Al             20     -0.00142     -0.00232      0.00113 *
 * Al             21     -0.00026     -0.00201      0.00127 *
 * Al             22     -0.00025     -0.00297     -0.00027 *
 * Al             23     -0.00846     -0.00354      0.00475 *
 * Al             24     -0.00530     -0.00199     -0.00092 *
 * Ti              1      0.08210      0.05189     -0.06352 *
 * Ti              2     -0.00579     -0.00118      0.00111 *
 * Ti              3     -0.00355     -0.00474      0.00112 *
 * Ti              4     -0.00098     -0.00062      0.00124 *
 * Ti              5     -0.00594     -0.00376      0.00432 *
 * Ti              6     -0.00317      0.00069     -0.00069 *
 * Ti              7     -0.00075     -0.00316     -0.00071 *
 * Ti              8     -0.00351     -0.00225     -0.00012 *
 *                                                          *
 ************************************************************

 ******************** Constrained Forces ********************
 *                                                          *
 *               Cartesian components (eV/A)                *
 * -------------------------------------------------------- *
 *                         x            y            z      *
 *                                                          *
 * Al              1     -0.00028     -0.00021      0.00049 *
 * Al              2     -0.00043     -0.00014      0.00078 *
 * Al              3     -0.00032     -0.00032      0.00112 *
 * Al              4     -0.00034     -0.00017     -0.00010 *
 * Al              5     -0.00022     -0.00033      0.01690 *
 * Al              6      0.00182      0.00147      0.00013 *
 * Al              7      0.00212      0.00102      0.00022 *
 * Al              8     -0.00045     -0.00009      0.01625 *
 * Al              9     -0.00700      0.00017     -0.00031 *
 * Al             10     -0.00987     -0.00083      0.00502 *
 * Al             11     -0.00088     -0.00059      0.00011 *
 * Al             12     -0.00268     -0.00012      0.00108 *
 * Al             13     -0.00176      0.00060      0.00123 *
 * Al             14     -0.00701     -0.00615      0.00466 *
 * Al             15     -0.00258      0.00110     -0.00016 *
 * Al             16     -0.00422     -0.00389     -0.00085 *
 * Al             17     -0.00271     -0.00644     -0.00038 *
 * Al             18     -0.00112     -0.00060     -0.00001 *
 * Al             19     -0.00480     -0.00851      0.00511 *
 * Al             20     -0.00142     -0.00232      0.00113 *
 * Al             21     -0.00026     -0.00201      0.00127 *
 * Al             22     -0.00025     -0.00297     -0.00027 *
 * Al             23     -0.00846     -0.00354      0.00475 *
 * Al             24     -0.00530     -0.00199     -0.00092 *
 * Ti              1      0.08210      0.05189     -0.06352 *
 * Ti              2     -0.00579     -0.00118      0.00111 *
 * Ti              3     -0.00355     -0.00474      0.00112 *
 * Ti              4     -0.00098     -0.00062      0.00124 *
 * Ti              5     -0.00594     -0.00376      0.00432 *
 * Ti              6     -0.00317      0.00069     -0.00069 *
 * Ti              7     -0.00075     -0.00316     -0.00071 *
 * Ti              8     -0.00351     -0.00225     -0.00012 *
 *                                                          *
 ************************************************************

 ***************** Stress Tensor *****************
 *                                               *
 *          Cartesian components (GPa)           *
 * --------------------------------------------- *
 *             x             y             z     *
 *                                               *
 *  x     -0.591283     -0.013445      0.125846  *
 *  y     -0.013445     -0.578346      0.079540  *
 *  z      0.125846      0.079540     -0.521643  *
 *                                               *
 *  Pressure:    0.5638                          *
 *                                               *
 *************************************************

 Pseudo atomic calculation performed for Al 3s2 3p1

 Converged in 15 iterations to a total energy of -105.5951 eV


 Pseudo atomic calculation performed for Ti 3s2 3p6 3d2 4s2

 Converged in 31 iterations to a total energy of -1585.9719 eV

Charge spilling parameter for spin component 1 = 0.51%

     Atomic Populations (Mulliken)
     -----------------------------
Species          Ion     s      p      d      f     Total  Charge (e)
=====================================================================
  Al              1     1.02   1.87   0.00   0.00   2.89     0.11
  Al              2     1.02   1.87   0.00   0.00   2.89     0.11
  Al              3     1.02   1.87   0.00   0.00   2.89     0.11
  Al              4     1.02   1.87   0.00   0.00   2.89     0.11
  Al              5     1.02   1.87   0.00   0.00   2.89     0.11
  Al              6     1.02   1.87   0.00   0.00   2.89     0.11
  Al              7     1.02   1.87   0.00   0.00   2.89     0.11
  Al              8     1.02   1.87   0.00   0.00   2.89     0.11
  Al              9     0.99   2.09   0.00   0.00   3.08    -0.08
  Al             10     0.99   2.09   0.00   0.00   3.08    -0.08
  Al             11     0.99   2.09   0.00   0.00   3.08    -0.08
  Al             12     0.99   2.09   0.00   0.00   3.08    -0.08
  Al             13     0.99   2.09   0.00   0.00   3.08    -0.08
  Al             14     0.99   2.09   0.00   0.00   3.08    -0.08
  Al             15     0.99   2.09   0.00   0.00   3.08    -0.08
  Al             16     0.99   2.09   0.00   0.00   3.08    -0.08
  Al             17     0.99   2.09   0.00   0.00   3.08    -0.08
  Al             18     0.99   2.09   0.00   0.00   3.08    -0.08
  Al             19     0.99   2.09   0.00   0.00   3.08    -0.08
  Al             20     0.99   2.09   0.00   0.00   3.08    -0.08
  Al             21     0.99   2.09   0.00   0.00   3.08    -0.08
  Al             22     0.99   2.09   0.00   0.00   3.08    -0.08
  Al             23     0.99   2.09   0.00   0.00   3.08    -0.08
  Al             24     0.99   2.09   0.00   0.00   3.08    -0.08
  Ti              1     2.19   6.70   3.06   0.00  11.95     0.05
  Ti              2     2.19   6.70   3.06   0.00  11.95     0.05
  Ti              3     2.19   6.70   3.06   0.00  11.95     0.05
  Ti              4     2.19   6.70   3.06   0.00  11.95     0.05
  Ti              5     2.19   6.70   3.06   0.00  11.95     0.05
  Ti              6     2.19   6.70   3.06   0.00  11.95     0.05
  Ti              7     2.19   6.70   3.06   0.00  11.95     0.05
  Ti              8     2.19   6.70   3.06   0.00  11.95     0.05
[...]
 * Al             19      0.00032     -0.00133      0.00016 *
 * Al             20      0.00015     -0.00137     -0.00074 *
 * Al             21      0.00051     -0.00143      0.00009 *
 * Al             22      0.00104     -0.00176      0.01352 *
 * Al             23      0.00016     -0.00045      0.01365 *
 * Al             24      0.00111     -0.00103     -0.00006 *
 * Ti              1     -0.00597     -0.00099     -0.00042 *
 * Ti              2     -0.00891     -0.00239      0.00454 *
 * Ti              3     -0.00058     -0.00142      0.00018 *
 * Ti              4     -0.00183     -0.00087      0.00088 *
 * Ti              5     -0.00155     -0.00125      0.00087 *
 * Ti              6     -0.00622     -0.00747      0.00479 *
 * Ti              7     -0.00153      0.00010      0.00021 *
 * Ti              8     -0.00344     -0.00492     -0.00038 *
 *                                                          *
 ************************************************************

 ******************** Constrained Forces ********************
 *                                                          *
 *               Cartesian components (eV/A)                *
 * -------------------------------------------------------- *
 *                         x            y            z      *
 *                                                          *
 * Al              1     -0.00431     -0.00891      0.00546 *
 * Al              2      0.00030      0.00035      0.00044 *
 * Al              3     -0.00067     -0.00368     -0.00250 *
 * Al              4      0.00027      0.00103     -0.00049 *
 * Al              5     -0.01013     -0.00024      0.00538 *
 * Al              6     -0.00382      0.00122     -0.00275 *
 * Al              7      0.00065     -0.00015      0.00071 *
 * Al              8      0.00089     -0.00000     -0.00022 *
 * Al              9      0.04932      0.03295     -0.04314 *
 * Al             10     -0.00059      0.00103     -0.00021 *
 * Al             11     -0.00063      0.00116      0.00012 *
 * Al             12     -0.00195      0.00051      0.00046 *
 * Al             13     -0.00072      0.00108     -0.00015 *
 * Al             14     -0.00080     -0.00004      0.00088 *
 * Al             15     -0.00122      0.00173      0.00088 *
 * Al             16     -0.00077      0.00147     -0.00034 *
 * Al             17      0.00109     -0.00134     -0.00201 *
 * Al             18     -0.00018     -0.00157      0.00017 *
 * Al             19      0.00032     -0.00133      0.00016 *
 * Al             20      0.00015     -0.00137     -0.00074 *
 * Al             21      0.00051     -0.00143      0.00009 *
 * Al             22      0.00104     -0.00176      0.01352 *
 * Al             23      0.00016     -0.00045      0.01365 *
 * Al             24      0.00111     -0.00103     -0.00006 *
 * Ti              1     -0.00597     -0.00099     -0.00042 *
 * Ti              2     -0.00891     -0.00239      0.00454 *
 * Ti              3     -0.00058     -0.00142      0.00018 *
 * Ti              4     -0.00183     -0.00087      0.00088 *
 * Ti              5     -0.00155     -0.00125      0.00087 *
 * Ti              6     -0.00622     -0.00747      0.00479 *
 * Ti              7     -0.00153      0.00010      0.00021 *
 * Ti              8     -0.00344     -0.00492     -0.00038 *
 *                                                          *
 ************************************************************

 ***************** Stress Tensor *****************
 *                                               *
 *          Cartesian components (GPa)           *
 * --------------------------------------------- *
 *             x             y             z     *
 *                                               *
 *  x     -0.588590     -0.011335      0.127098  *
 *  y     -0.011335     -0.570731      0.077910  *
 *  z      0.127098      0.077910     -0.517333  *
 *                                               *
 *  Pressure:    0.5589                          *
 *                                               *
 *************************************************

 Pseudo atomic calculation performed for Al 3s2 3p1

 Converged in 15 iterations to a total energy of -105.5951 eV


 Pseudo atomic calculation performed for Ti 3s2 3p6 3d2 4s2

 Converged in 31 iterations to a total energy of -1585.9719 eV

Charge spilling parameter for spin component 1 = 0.51%

     Atomic Populations (Mulliken)
     -----------------------------
Species          Ion     s      p      d      f     Total  Charge (e)
=====================================================================
  Al              1     1.02   1.87   0.00   0.00   2.89     0.11
  Al              2     1.02   1.87   0.00   0.00   2.89     0.11
  Al              3     1.02   1.87   0.00   0.00   2.89     0.11
  Al              4     1.02   1.87   0.00   0.00   2.89     0.11
  Al              5     1.02   1.87   0.00   0.00   2.89     0.11
  Al              6     1.02   1.87   0.00   0.00   2.89     0.11
  Al              7     1.02   1.87   0.00   0.00   2.89     0.11
  Al              8     1.02   1.87   0.00   0.00   2.89     0.11
  Al              9     0.99   2.09   0.00   0.00   3.08    -0.08
  Al             10     0.99   2.09   0.00   0.00   3.08    -0.08
  Al             11     0.99   2.09   0.00   0.00   3.08    -0.08
  Al             12     0.99   2.09   0.00   0.00   3.08    -0.08
  Al             13     0.99   2.09   0.00   0.00   3.08    -0.08
  Al             14     0.99   2.09   0.00   0.00   3.08    -0.08
  Al             15     0.99   2.09   0.00   0.00   3.08    -0.08
  Al             16     0.99   2.09   0.00   0.00   3.08    -0.08
  Al             17     0.99   2.09   0.00   0.00   3.08    -0.08
  Al             18     0.99   2.09   0.00   0.00   3.08    -0.08
  Al             19     0.99   2.09   0.00   0.00   3.08    -0.08
  Al             20     0.99   2.09   0.00   0.00   3.08    -0.08
  Al             21     0.99   2.09   0.00   0.00   3.08    -0.08
  Al             22     0.99   2.09   0.00   0.00   3.08    -0.08
  Al             23     0.99   2.09   0.00   0.00   3.08    -0.08
  Al             24     0.99   2.09   0.00   0.00   3.08    -0.08
  Ti              1     2.19   6.70   3.06   0.00  11.95     0.05
  Ti              2     2.19   6.70   3.06   0.00  11.95     0.05
  Ti              3     2.19   6.70   3.06   0.00  11.95     0.05
  Ti              4     2.19   6.70   3.06   0.00  11.95     0.05
  Ti              5     2.19   6.70   3.06   0.00  11.95     0.05
  Ti              6     2.19   6.70   3.06   0.00  11.95     0.05
  Ti              7     2.19   6.70   3.06   0.00  11.95     0.05
  Ti              8     2.19   6.70   3.06   0.00  11.95     0.05
=====================================================================

                 Bond                   Population      Length (A)
======================================================================
             Al 9  -- Al 22                  0.40        2.66260
             Al 1  -- Ti 8                   0.29        2.66791
             Al 6  -- Ti 2                   0.29        2.66791
             Al 4  -- Ti 5                   0.29        2.66791
             Al 7  -- Ti 3                   0.29        2.66791
             Al 5  -- Ti 1                   0.29        2.66791
             Al 2  -- Ti 7                   0.29        2.66791
             Al 3  -- Ti 7                   0.29        2.66791
             Al 5  -- Ti 4                   0.29        2.66791
             Al 16 -- Al 19                  0.40        2.66791
             Al 15 -- Al 20                  0.40        2.66791
             Al 10 -- Al 21                  0.40        2.66791
             Al 14 -- Al 17                  0.40        2.66791
             Al 11 -- Al 24                  0.40        2.66791
             Al 16 -- Al 18                  0.40        2.66791
             Al 12 -- Al 22                  0.40        2.66791
             Al 8  -- Ti 1                   0.29        2.66791
             Al 7  -- Ti 2                   0.29        2.66791
             Al 3  -- Ti 6                   0.29        2.66791
             Al 2  -- Ti 6                   0.29        2.66791
             Al 8  -- Ti 4                   0.29        2.66791
             Al 1  -- Ti 5                   0.29        2.66791
             Al 6  -- Ti 3                   0.29        2.66791
             Al 4  -- Ti 8                   0.29        2.66791
             Al 10 -- Al 24                  0.40        2.66791
             Al 13 -- Al 18                  0.40        2.66791
             Al 12 -- Al 23                  0.40        2.66791
             Al 14 -- Al 20                  0.40        2.66791
             Al 11 -- Al 21                  0.40        2.66791
             Al 15 -- Al 17                  0.40        2.66791
             Al 13 -- Al 19                  0.40        2.66791
             Al 11 -- Al 18                  0.39        2.66920
             Al 16 -- Al 21                  0.39        2.66920
             Al 13 -- Al 24                  0.39        2.66920
             Al 14 -- Al 23                  0.39        2.66920
             Al 12 -- Al 17                  0.39        2.66920
             Al 15 -- Al 22                  0.39        2.66920
             Al 10 -- Al 19                  0.39        2.66920
             Al 9  -- Al 20                  0.39        2.66922
             Al 1  -- Ti 2                   0.29        2.66933
             Al 3  -- Ti 4                   0.29        2.66933
             Al 6  -- Ti 5                   0.29        2.66933
             Al 8  -- Ti 6                   0.29        2.66933
             Al 8  -- Ti 7                   0.29        2.66933
             Al 7  -- Ti 8                   0.29        2.66933
             Al 2  -- Ti 4                   0.29        2.66933
             Al 7  -- Ti 5                   0.29        2.66933
             Al 6  -- Ti 8                   0.29        2.66933
             Al 1  -- Ti 3                   0.29        2.66933
             Al 5  -- Ti 7                   0.29        2.66933
             Al 4  -- Ti 3                   0.29        2.66933
             Al 2  -- Ti 1                   0.29        2.66933
             Al 5  -- Ti 6                   0.29        2.66933
             Al 4  -- Ti 2                   0.29        2.66933
             Al 3  -- Ti 1                   0.29        2.66933
             Al 16 -- Al 24                  0.39        2.66946
             Al 15 -- Al 23                  0.39        2.66946
             Al 14 -- Al 22                  0.39        2.66946
             Al 10 -- Al 18                  0.39        2.66946
             Al 12 -- Al 20                  0.39        2.66946
             Al 11 -- Al 19                  0.39        2.66946
             Al 13 -- Al 21                  0.39        2.66946
             Al 9  -- Al 17                  0.39        2.66948
             Al 9  -- Al 23                  0.39        2.67326
             Al 9  -- Ti 6                   0.16        2.82555
             Al 5  -- Al 9                   0.11        2.82561
             Al 3  -- Al 9                   0.11        2.83163
             Al 9  -- Ti 1                   0.16        2.83169
             Al 22 -- Ti 4                   0.16        2.83437
             Al 13 -- Ti 6                   0.16        2.83437
             Al 16 -- Ti 7                   0.16        2.83437
             Al 19 -- Ti 1                   0.16        2.83437
             Al 21 -- Ti 7                   0.16        2.83437
             Al 10 -- Ti 5                   0.16        2.83437
             Al 24 -- Ti 6                   0.16        2.83437
             Al 15 -- Ti 4                   0.16        2.83437
             Al 13 -- Ti 2                   0.16        2.83437
             Al 19 -- Ti 5                   0.16        2.83437
             Al 15 -- Ti 8                   0.16        2.83437
             Al 21 -- Ti 3                   0.16        2.83437
             Al 20 -- Ti 6                   0.16        2.83437
             Al 17 -- Ti 3                   0.16        2.83437
             Al 11 -- Ti 8                   0.16        2.83437
             Al 20 -- Ti 2                   0.16        2.83437
             Al 14 -- Ti 1                   0.16        2.83437
             Al 16 -- Ti 3                   0.16        2.83437
             Al 23 -- Ti 5                   0.16        2.83437
             Al 22 -- Ti 8                   0.16        2.83437
             Al 10 -- Ti 1                   0.16        2.83437
             Al 12 -- Ti 3                   0.16        2.83437
             Al 18 -- Ti 8                   0.16        2.83437
             Al 18 -- Ti 4                   0.16        2.83437
             Al 12 -- Ti 7                   0.16        2.83437
             Al 24 -- Ti 2                   0.16        2.83437
             Al 17 -- Ti 7                   0.16        2.83437
             Al 23 -- Ti 1                   0.16        2.83437
             Al 11 -- Ti 4                   0.16        2.83437
             Al 14 -- Ti 5                   0.16        2.83437
             Al 4  -- Al 12                  0.11        2.83443
             Al 2  -- Al 10                  0.11        2.83443
             Al 7  -- Al 19                  0.11        2.83443
             Al 8  -- Al 20                  0.11        2.83443
             Al 2  -- Al 18                  0.11        2.83443
             Al 7  -- Al 11                  0.11        2.83443
             Al 5  -- Al 21                  0.11        2.83443
             Al 8  -- Al 24                  0.11        2.83443
             Al 6  -- Al 10                  0.11        2.83443
             Al 3  -- Al 15                  0.11        2.83443
             Al 5  -- Al 13                  0.11        2.83443
             Al 2  -- Al 22                  0.11        2.83443
             Al 3  -- Al 11                  0.11        2.83443
             Al 5  -- Al 17                  0.11        2.83443
             Al 4  -- Al 24                  0.11        2.83443
             Al 7  -- Al 15                  0.11        2.83443
             Al 6  -- Al 14                  0.11        2.83443
             Al 2  -- Al 14                  0.11        2.83443
             Al 4  -- Al 16                  0.11        2.83443
             Al 8  -- Al 12                  0.11        2.83443
             Al 7  -- Al 23                  0.11        2.83443
             Al 1  -- Al 13                  0.11        2.83443
             Al 6  -- Al 22                  0.11        2.83443
             Al 6  -- Al 18                  0.11        2.83443
             Al 8  -- Al 16                  0.11        2.83443
             Al 3  -- Al 23                  0.11        2.83443
             Al 1  -- Al 21                  0.11        2.83443
             Al 3  -- Al 19                  0.11        2.83443
             Al 4  -- Al 20                  0.11        2.83443
             Al 1  -- Al 17                  0.11        2.83443
             Al 4  -- Al 19                  0.11        2.83542
             Al 8  -- Al 14                  0.11        2.83542
             Al 3  -- Al 20                  0.11        2.83542
             Al 1  -- Al 18                  0.11        2.83542
             Al 7  -- Al 13                  0.11        2.83542
             Al 6  -- Al 20                  0.11        2.83542
             Al 3  -- Al 21                  0.11        2.83542
             Al 1  -- Al 23                  0.11        2.83542
             Al 2  -- Al 12                  0.11        2.83542
             Al 2  -- Al 17                  0.11        2.83542
             Al 1  -- Al 11                  0.11        2.83542
             Al 4  -- Al 10                  0.11        2.83542
             Al 2  -- Al 13                  0.11        2.83542
             Al 6  -- Al 16                  0.11        2.83542
             Al 8  -- Al 18                  0.11        2.83542
             Al 5  -- Al 15                  0.11        2.83542
             Al 4  -- Al 22                  0.11        2.83542
             Al 7  -- Al 17                  0.11        2.83542
             Al 8  -- Al 23                  0.11        2.83542
             Al 5  -- Al 22                  0.11        2.83542
             Al 5  -- Al 10                  0.11        2.83542
             Al 3  -- Al 16                  0.11        2.83542
             Al 7  -- Al 12                  0.11        2.83542
             Al 7  -- Al 24                  0.11        2.83542
             Al 4  -- Al 15                  0.11        2.83542
             Al 6  -- Al 21                  0.11        2.83542
             Al 8  -- Al 11                  0.11        2.83542
             Al 2  -- Al 24                  0.11        2.83542
             Al 5  -- Al 19                  0.11        2.83542
             Al 1  -- Al 14                  0.11        2.83542
             Al 19 -- Ti 3                   0.16        2.83548
             Al 17 -- Ti 1                   0.16        2.83548
             Al 20 -- Ti 4                   0.16        2.83548
             Al 21 -- Ti 5                   0.16        2.83548
             Al 18 -- Ti 2                   0.16        2.83548
             Al 22 -- Ti 6                   0.16        2.83548
             Al 10 -- Ti 7                   0.16        2.83548
             Al 11 -- Ti 6                   0.16        2.83548
             Al 12 -- Ti 5                   0.16        2.83548
             Al 15 -- Ti 2                   0.16        2.83548
             Al 14 -- Ti 6                   0.16        2.83548
             Al 23 -- Ti 2                   0.16        2.83548
             Al 12 -- Ti 4                   0.16        2.83548
             Al 11 -- Ti 3                   0.16        2.83548
             Al 10 -- Ti 2                   0.16        2.83548
             Al 18 -- Ti 7                   0.16        2.83548
             Al 17 -- Ti 8                   0.16        2.83548
             Al 24 -- Ti 8                   0.16        2.83548
             Al 14 -- Ti 3                   0.16        2.83548
             Al 23 -- Ti 7                   0.16        2.83548
             Al 16 -- Ti 1                   0.16        2.83548
             Al 24 -- Ti 1                   0.16        2.83548
             Al 13 -- Ti 4                   0.16        2.83548
             Al 13 -- Ti 5                   0.16        2.83548
             Al 15 -- Ti 7                   0.16        2.83548
             Al 16 -- Ti 8                   0.16        2.83548
             Al 22 -- Ti 3                   0.16        2.83548
             Al 20 -- Ti 5                   0.16        2.83548
             Al 21 -- Ti 4                   0.16        2.83548
             Al 19 -- Ti 6                   0.16        2.83548
             Al 6  -- Al 9                   0.11        2.83924
             Al 9  -- Ti 8                   0.16        2.83930
             Al 9  -- Ti 2                   0.16        2.84320
             Al 1  -- Al 9                   0.11        2.84326
======================================================================

 
 A BibTeX formatted list of references used in this run has been written to 
 castep.bib
 
Initialisation time =     14.31 s
Calculation time    =   1035.31 s
Finalisation time   =      0.12 s
Total time          =   1049.74 s
Peak Memory Use     = 1697408 kB
  
Overall parallel efficiency rating: Excellent (98%)                             
  
Data was distributed by:-
k-point (40-way); efficiency rating: Excellent (98%)                            
