 +-------------------------------------------------+
 |                                                 |
 |      CCC   AA    SSS  TTTTT  EEEEE  PPPP        |
 |     C     A  A  S       T    E      P   P       |
 |     C     AAAA   SS     T    EEE    PPPP        |
 |     C     A  A     S    T    E      P           |
 |      CCC  A  A  SSS     T    EEEEE  P           |
 |                                                 |
 +-------------------------------------------------+
 |                                                 |
 | Welcome to Academic Release CASTEP version 17.21|          
 | Ab Initio Total Energy Program                  |
 |                                                 |
 | Authors:                                        |
 | M. Segall, M. Probert, C. Pickard, P. Hasnip,   |
 | S. Clark, K. Refson, J. R. Yates, M. Payne      |
 |                                                 |
 | Contributors:                                   |
 | P. Lindan, P. Haynes, J. White, V. Milman,      |
 | N. Govind, M. Gibson, P. Tulip, V. Cocula,      |
 | B. Montanari, D. Quigley, M. Glover,            |
 | L. Bernasconi, A. Perlov, M. Plummer,           |
 | E. McNellis, J. Meyer, J. Gale, D. Jochym       |
 | J. Aarons, B. Walker, R. Gillen, D. Jones       |
 | T. Green, I. J. Bush, C. J. Armstrong,          |
 | E. J. Higgins, E. L. Brown, M. S. McFly,        |
 | J. Wilkins, B-C. Shih, P. J. P. Byrne           |
 |                                                 |
 | Copyright (c) 2000 - 2017                       |
 |                                                 |
 |     Distributed under the terms of an           |
 |     Agreement between the United Kingdom        |
 |     Car-Parrinello (UKCP) Consortium,           |
 |     Daresbury Laboratory and Accelrys, Inc.     |
 |                                                 |
 | Please cite                                     |
 |                                                 |
 |     "First principles methods using CASTEP"     |
 |                                                 |
 |         Zeitschrift fuer Kristallographie       |
 |           220(5-6) pp. 567-570 (2005)           |
 |                                                 |
 | S. J. Clark, M. D. Segall, C. J. Pickard,       |
 | P. J. Hasnip, M. J. Probert, K. Refson,         |
 | M. C. Payne                                     |
 |                                                 |
 |       in all publications arising from          |
 |              your use of CASTEP                 |
 |                                                 |
 +-------------------------------------------------+


 Compiled for linux_x86_64_gfortran6.0-XT on Fri, 21 Jul 2017 10:20:05 +0100
 from code version 056e886bd5a1+ Castep172_branch Mon, 15 May 2017 14:45:35 +0100
 Compiler: GNU Fortran 6.3.0; Optimisation: fast
 MATHLIBS: Intel MKL(2017.0.0) (LAPACK version 3.6.0)
 FFT Lib : fftw3 version commercial-fftw-3.3.4-sse2-avx
 Fundamental constants values: CODATA 2010

 Run started: Thu, 31 Oct 2019 13:10:09 +0000

 Atomic calculation performed for Al: 1s2 2s2 2p6 3s2 3p1

 Converged in 55 iterations to an ae energy of -6578.725 eV

   ============================================================                
   | Pseudopotential Report - Date of generation 31-10-2019   |                
   ------------------------------------------------------------                
   | Element: Al Ionic charge:  3.00 Level of theory: LDA     |                
   | Atomic Solver: Koelling-Harmon                           |                
   |                                                          |                
   |               Reference Electronic Structure             |                
   |         Orbital         Occupation         Energy        |                
   |            3s              2.000           -0.288        |                
   |            3p              1.000           -0.102        |                
   |                                                          |                
   |                 Pseudopotential Definition               |                
   |        Beta     l      e      Rc     scheme   norm       |                
   |          1      0   -0.288   2.192     qc      0         |                
   |          2      0    0.250   2.192     qc      0         |                
   |          3      1   -0.102   2.192     qc      0         |                
   |          4      1    0.250   2.192     qc      0         |                
   |          5      2    0.000   2.000     qc      0         |                
   |          6      2    0.250   2.000     qc      0         |                
   |         loc     3    0.000   2.192     pn      0         |                
   |                                                          |                
   | Augmentation charge Rinner = 1.398                       |                
   | Partial core correction Rc = 1.398                       |                
   ------------------------------------------------------------                
   | "3|2.2|2.2|1.4|4|5|5|30:31:32U2U2"                       |                
   ------------------------------------------------------------                
   |      Author: Chris J. Pickard, Cambridge University      |                
   ============================================================                

 Atomic calculation performed for Ti: 1s2 2s2 2p6 3s2 3p6 3d2 4s2

 Converged in 78 iterations to an ae energy of -23176.516 eV

   ============================================================                
   | Pseudopotential Report - Date of generation 31-10-2019   |                
   ------------------------------------------------------------                
   | Element: Ti Ionic charge: 12.00 Level of theory: LDA     |                
   | Atomic Solver: Koelling-Harmon                           |                
   |                                                          |                
   |               Reference Electronic Structure             |                
   |         Orbital         Occupation         Energy        |                
   |            3s              2.000           -2.288        |                
   |            3p              6.000           -1.425        |                
   |            4s              2.000           -0.169        |                
   |            3d              2.000           -0.164        |                
   |                                                          |                
   |                 Pseudopotential Definition               |                
   |        Beta     l      e      Rc     scheme   norm       |                
   |          1      0   -2.288   1.793     qc      0         |                
   |          2      0   -0.169   1.793     qc      0         |                
   |          3      0    0.250   1.793     qc      0         |                
   |          4      1   -1.425   1.793     qc      0         |                
   |          5      1    0.250   1.793     qc      0         |                
   |          6      2   -0.164   1.793     qc      0         |                
   |          7      2    0.250   1.793     qc      0         |                
   |         loc     3    0.000   1.793     pn      0         |                
   |                                                          |                
   | Augmentation charge Rinner = 1.263                       |                
   | Partial core correction Rc = 1.263                       |                
   ------------------------------------------------------------                
   | "3|1.8|9|10|11|30U:40:31:32(qc=5.5)"                     |                
   ------------------------------------------------------------                
   |      Author: Chris J. Pickard, Cambridge University      |                
   ============================================================                

 Pseudo atomic calculation performed for Al 3s2 3p1

 Converged in 15 iterations to a total energy of -105.5952 eV


 Pseudo atomic calculation performed for Ti 3s2 3p6 3d2 4s2

 Converged in 31 iterations to a total energy of -1585.9998 eV

 Calculation parallelised over 40 processes.
 Data is distributed by k-point(40-way)

 ************************************ Title ************************************
 

 ***************************** General Parameters ******************************
  
 output verbosity                               : normal  (1)
 write checkpoint data to                       : castep.check
 type of calculation                            : single point energy
 stress calculation                             : on
 density difference calculation                 : off
 electron localisation func (ELF) calculation   : off
 Hirshfeld analysis                             : off
 unlimited duration calculation
 timing information                             : on
 memory usage estimate                          : on
 write final potential to formatted file        : off
 write final density to formatted file          : off
 write BibTeX reference list                    : on
 write OTFG pseudopotential files               : on
 write electrostatic potential file             : on
 write bands file                               : on
 checkpoint writing                             : off
  
 output         length unit                     : A
 output           mass unit                     : amu
 output           time unit                     : ps
 output         charge unit                     : e
 output           spin unit                     : hbar/2
 output         energy unit                     : eV
 output          force unit                     : eV/A
 output       velocity unit                     : A/ps
 output       pressure unit                     : GPa
 output     inv_length unit                     : 1/A
 output      frequency unit                     : cm-1
 output force constant unit                     : eV/A**2
 output         volume unit                     : A**3
 output   IR intensity unit                     : (D/A)**2/amu
 output         dipole unit                     : D
 output         efield unit                     : eV/A/e
 output        entropy unit                     : J/mol/K
  
 wavefunctions paging                           : none
 random number generator seed                   : randomised (131010166)
 data distribution                              : optimal for this architecture
 optimization strategy                          : balance speed and memory

 *********************** Exchange-Correlation Parameters ***********************
  
 using functional                               : Local Density Approximation
 relativistic treatment                         : Koelling-Harmon
 DFT+D: Semi-empirical dispersion correction    : off

 ************************* Pseudopotential Parameters **************************
  
 pseudopotential representation                 : reciprocal space
 <beta|phi> representation                      : reciprocal space
 spin-orbit coupling                            : off

 **************************** Basis Set Parameters *****************************
  
 plane wave basis set cut-off                   :   600.0000   eV
 size of standard grid                          :     1.7500
 size of   fine   gmax                          :    21.9610   1/A
 finite basis set correction                    : automatic
 number of sample energies                      :          3
           sample  spacing                      :     5.0000   eV

 **************************** Electronic Parameters ****************************
  
 number of  electrons                           :  168.0    
 net charge of system                           :  0.000    
 treating system as non-spin-polarized
 number of bands                                :        101

 ********************* Electronic Minimization Parameters **********************
  
 Method: Treating system as metallic with density mixing treatment of electrons,
         and number of  SD  steps               :          1
         and number of  CG  steps               :          4
  
 total energy / atom convergence tol.           : 0.1000E-04   eV
 eigen-energy convergence tolerance             : 0.1000E-05   eV
 max force / atom convergence tol.              : ignored
 convergence tolerance window                   :          3   cycles
 max. number of SCF cycles                      :        250
 number of fixed-spin iterations                :         10
 smearing scheme                                : Gaussian
 smearing width                                 : 0.1000       eV
 Fermi energy convergence tolerance             : 0.2721E-13   eV
 periodic dipole correction                     : NONE

 ************************** Density Mixing Parameters **************************
  
 density-mixing scheme                          : Pulay
 max. length of mixing history                  :         20
 charge density mixing amplitude                : 0.8000    
 cut-off energy for mixing                      :  600.0       eV

 *********************** Population Analysis Parameters ************************
  
 Population analysis with cutoff                :  3.000       A

 *******************************************************************************
  

                           -------------------------------
                                      Unit Cell
                           -------------------------------
        Real Lattice(A)                      Reciprocal Lattice(1/A)
  10.0058820   0.0079990   0.0022210        0.6280577  -0.2992097   0.5886757
   4.3017470   9.0339740   0.0022210       -0.0006868   0.6956886   0.5886758
  -7.1526280  -4.5202370   5.3336060       -0.0002612  -0.0001651   1.1775467

                       Lattice parameters(A)       Cell Angles
                    a =   10.005885          alpha =  135.672917
                    b =   10.005884          beta  =  135.672918
                    c =   10.001999          gamma =   64.491601

                       Current cell volume =  482.137121       A**3
                                   density =    2.137344   AMU/A**3
                                           =    3.549143     g/cm^3

                           -------------------------------
                                     Cell Contents
                           -------------------------------
                         Total number of ions in cell =   32
                      Total number of species in cell =    2
                        Max number of any one species =   24

            xxxxxxxxxxxxxxxxxxxxxxxxxxxxxxxxxxxxxxxxxxxxxxxxxxxxxxxxxxxx
            x  Element    Atom        Fractional coordinates of atoms  x
            x            Number           u          v          w      x
            x----------------------------------------------------------x
            x  Al           1         0.249998   0.250000   1.000000   x 
            x  Al           2         0.749998   0.250000   1.000000   x 
            x  Al           3         0.249998   0.750000   1.000000   x 
            x  Al           4         0.749998   0.750000   1.000000   x 
            x  Al           5         0.249998   0.250000   0.500000   x 
            x  Al           6         0.749997   0.250000   0.500000   x 
            x  Al           7         0.249998   0.750000   0.500000   x 
            x  Al           8         0.749998   0.750000   0.500000   x 
            x  Al           9         0.375003   0.124994   0.250000   x 
            x  Al          10         0.875003   0.124994   0.250000   x 
            x  Al          11         0.375004   0.624994   0.250000   x 
            x  Al          12         0.875003   0.624994   0.250000   x 
            x  Al          13         0.375004   0.124994   0.750000   x 
            x  Al          14         0.875004   0.124994   0.750000   x 
            x  Al          15         0.375004   0.624994   0.750000   x 
            x  Al          16         0.875004   0.624994   0.750000   x 
            x  Al          17         0.124991   0.375006   0.250000   x 
            x  Al          18         0.624992   0.375006   0.250000   x 
            x  Al          19         0.124991   0.875006   0.250000   x 
            x  Al          20         0.624991   0.875006   0.250000   x 
            x  Al          21         0.124991   0.375006   0.750000   x 
            x  Al          22         0.624992   0.375006   0.750000   x 
            x  Al          23         0.124992   0.875006   0.750000   x 
            x  Al          24         0.624992   0.875006   0.750000   x 
            x  Ti           1         1.000997   1.000000   1.000000   x 
            x  Ti           2         0.499998   1.000000   1.000000   x 
            x  Ti           3         0.999998   0.500000   1.000000   x 
            x  Ti           4         0.499998   0.500000   1.000000   x 
            x  Ti           5         0.999997   1.000000   0.500000   x 
            x  Ti           6         0.499998   1.000000   0.500000   x 
            x  Ti           7         0.999997   0.500000   0.500000   x 
            x  Ti           8         0.499997   0.500000   0.500000   x 
            xxxxxxxxxxxxxxxxxxxxxxxxxxxxxxxxxxxxxxxxxxxxxxxxxxxxxxxxxxxx


                         No user defined ionic velocities

                           -------------------------------
                                   Details of Species
                           -------------------------------

                               Mass of species in AMU
                                    Al   26.9815400
                                    Ti   47.8670000

                          Electric Quadrupole Moment (Barn)
                                    Al    0.1466000 Isotope 27
                                    Ti    0.3020000 Isotope 47

                          Files used for pseudopotentials:
                                    Al 3|2.2|2.2|1.4|4|5|5|30:31:32U2U2
                                    Ti 3|1.8|9|10|11|30U:40:31:32(qc=5.5)

                           -------------------------------
                              k-Points For BZ Sampling
                           -------------------------------
                       MP grid size for SCF calculation is  4  4  5
                            with an offset of   0.000  0.000  0.000
                       Number of kpoints used =            40

                           -------------------------------
                               Symmetry and Constraints
                           -------------------------------

                      Maximum deviation from symmetry =  0.00000         ANG

                      Number of symmetry operations   =           1
                      Number of ionic constraints     =           3
                      Point group of crystal =     1: C1, 1, 1
                      Space group of crystal =     1: P1, P 1

             Set iprint > 1 for details on symmetry rotations/translations

                         Centre of mass is constrained
             Set iprint > 1 for details of linear ionic constraints

                         Number of cell constraints= 0
                         Cell constraints are:  1 2 3 4 5 6

                         External pressure/stress (GPa)
                          0.00000   0.00000   0.00000
                                    0.00000   0.00000
                                              0.00000
  
+---------------- MEMORY AND SCRATCH DISK ESTIMATES PER PROCESS --------------+
|                                                     Memory          Disk    |
| Baseline code, static data and system overhead      171.0 MB         0.0 MB |
| BLAS internal memory storage                          0.0 MB         0.0 MB |
| Model and support data                              282.5 MB      1042.7 MB |
| Electronic energy minimisation requirements         206.1 MB         0.0 MB |
| Force calculation requirements                       54.1 MB         0.0 MB |
| Stress calculation requirements                      59.8 MB         0.0 MB |
|                                               ----------------------------- |
| Approx. total storage required per process          659.6 MB      1042.7 MB |
|                                                                             |
| Requirements will fluctuate during execution and may exceed these estimates |
+-----------------------------------------------------------------------------+
Calculating finite basis set correction with  3 cut-off energies.
Calculating total energy with cut-off of  590.000 eV.
------------------------------------------------------------------------ <-- SCF
SCF loop      Energy           Fermi           Energy gain       Timer   <-- SCF
                               energy          per atom          (sec)   <-- SCF
------------------------------------------------------------------------ <-- SCF
Initial  -1.09432422E+004  0.00000000E+000                        34.92  <-- SCF
      1  -1.48929927E+004  9.38777345E+000   1.23429702E+002      71.90  <-- SCF
      2  -1.53732160E+004  6.63187900E+000   1.50069779E+001      98.90  <-- SCF
      3  -1.53984529E+004  6.49387335E+000   7.88653974E-001     128.58  <-- SCF
      4  -1.53976584E+004  6.50108794E+000  -2.48270781E-002     174.16  <-- SCF
      5  -1.53976533E+004  6.55881220E+000  -1.59580163E-004     211.85  <-- SCF
      6  -1.53976218E+004  6.50533447E+000  -9.85498228E-004     248.30  <-- SCF
      7  -1.53976168E+004  6.48867812E+000  -1.57545607E-004     284.72  <-- SCF
      8  -1.53976059E+004  6.50962264E+000  -3.41020224E-004     327.06  <-- SCF
      9  -1.53976059E+004  6.50970163E+000   2.14109704E-006     359.72  <-- SCF
     10  -1.53976059E+004  6.50917833E+000  -1.69515018E-006     388.51  <-- SCF
     11  -1.53976059E+004  6.50908264E+000   5.06814808E-009     416.95  <-- SCF
------------------------------------------------------------------------ <-- SCF
 
Final energy, E             =  -15397.54561457     eV
Final free energy (E-TS)    =  -15397.60586546     eV
(energies not corrected for finite basis set)
 
NB est. 0K energy (E-0.5TS)      =  -15397.57574001     eV
 
Calculating total energy with cut-off of  595.000 eV.
------------------------------------------------------------------------ <-- SCF
SCF loop      Energy           Fermi           Energy gain       Timer   <-- SCF
                               energy          per atom          (sec)   <-- SCF
------------------------------------------------------------------------ <-- SCF
Initial  -1.53975456E+004  0.00000000E+000                       445.09  <-- SCF
      1  -1.53976062E+004  6.50789071E+000   1.89266712E-003     474.40  <-- SCF
      2  -1.53976062E+004  6.50789062E+000   2.05771936E-007     502.38  <-- SCF
      3  -1.53976091E+004  6.51122495E+000   9.18908642E-005     538.05  <-- SCF
      4  -1.53976060E+004  6.50995571E+000  -9.71622188E-005     573.27  <-- SCF
      5  -1.53976060E+004  6.50889440E+000  -9.05484956E-008     602.10  <-- SCF
      6  -1.53976060E+004  6.50870665E+000   1.62129888E-007     629.92  <-- SCF
------------------------------------------------------------------------ <-- SCF
 
Final energy, E             =  -15397.54573371     eV
Final free energy (E-TS)    =  -15397.60600462     eV
(energies not corrected for finite basis set)
 
NB est. 0K energy (E-0.5TS)      =  -15397.57586917     eV
 
Calculating total energy with cut-off of  600.000 eV.
------------------------------------------------------------------------ <-- SCF
SCF loop      Energy           Fermi           Energy gain       Timer   <-- SCF
                               energy          per atom          (sec)   <-- SCF
------------------------------------------------------------------------ <-- SCF
Initial  -1.53975457E+004  0.00000000E+000                       658.06  <-- SCF
      1  -1.53976062E+004  6.50838193E+000   1.89115736E-003     686.42  <-- SCF
      2  -1.53976062E+004  6.50838184E+000   1.78274779E-007     714.00  <-- SCF
      3  -1.53976083E+004  6.51014549E+000   6.37842011E-005     748.99  <-- SCF
      4  -1.53976061E+004  6.50947292E+000  -6.75297908E-005     783.72  <-- SCF
      5  -1.53976061E+004  6.50890670E+000   1.41032761E-007     812.54  <-- SCF
      6  -1.53976061E+004  6.50870079E+000   5.96235599E-008     840.52  <-- SCF
------------------------------------------------------------------------ <-- SCF
 
Final energy, E             =  -15397.54586379     eV
Final free energy (E-TS)    =  -15397.60613487     eV
(energies not corrected for finite basis set)
 
NB est. 0K energy (E-0.5TS)      =  -15397.57599933     eV
 
 For future reference: finite basis dEtot/dlog(Ecut) =      -0.015879eV
 Total energy corrected for finite basis set =  -15397.606134 eV

 ******************* Unconstrained Forces *******************
 *                                                          *
 *               Cartesian components (eV/A)                *
 * -------------------------------------------------------- *
 *                         x            y            z      *
 *                                                          *
 * Al              1      0.00049     -0.00014     -0.00021 *
 * Al              2      0.00906     -0.01353     -0.00003 *
 * Al              3      0.00929     -0.01390      0.00003 *
 * Al              4      0.00030      0.00020      0.00024 *
 * Al              5      0.00078     -0.00056      0.00002 *
 * Al              6     -0.00174     -0.00160     -0.00021 *
 * Al              7     -0.00197     -0.00123      0.00024 *
 * Al              8      0.00081     -0.00049     -0.00003 *
 * Al              9      0.00971      0.00173      0.00291 *
 * Al             10      0.00898      0.00155     -0.00296 *
 * Al             11      0.00061      0.00208      0.00109 *
 * Al             12      0.00037      0.00223     -0.00113 *
 * Al             13      0.00117      0.00104      0.00002 *
 * Al             14      0.00390      0.00469     -0.00261 *
 * Al             15      0.00147      0.00114      0.00030 *
 * Al             16      0.00379      0.00472      0.00255 *
 * Al             17      0.00509      0.00238      0.00244 *
 * Al             18      0.00295     -0.00123     -0.00020 *
 * Al             19      0.00495      0.00249     -0.00238 *
 * Al             20      0.00318     -0.00116     -0.00016 *
 * Al             21      0.00190     -0.00053     -0.00118 *
 * Al             22      0.00170     -0.00031      0.00133 *
 * Al             23      0.01137     -0.00033     -0.00314 *
 * Al             24      0.01049     -0.00040      0.00304 *
 * Ti              1     -0.11558      0.00150      0.00024 *
 * Ti              2      0.00807      0.00016      0.00005 *
 * Ti              3      0.00351      0.00230      0.00002 *
 * Ti              4      0.00148     -0.00031     -0.00005 *
 * Ti              5      0.00535      0.00201     -0.00226 *
 * Ti              6      0.00154      0.00178     -0.00236 *
 * Ti              7      0.00166      0.00172      0.00225 *
 * Ti              8      0.00533      0.00199      0.00216 *
 *                                                          *
 ************************************************************

 ******************** Constrained Forces ********************
 *                                                          *
 *               Cartesian components (eV/A)                *
 * -------------------------------------------------------- *
 *                         x            y            z      *
 *                                                          *
 * Al              1      0.00049     -0.00014     -0.00021 *
 * Al              2      0.00906     -0.01353     -0.00003 *
 * Al              3      0.00929     -0.01390      0.00003 *
 * Al              4      0.00030      0.00020      0.00024 *
 * Al              5      0.00078     -0.00056      0.00002 *
 * Al              6     -0.00174     -0.00160     -0.00021 *
 * Al              7     -0.00197     -0.00123      0.00024 *
 * Al              8      0.00081     -0.00049     -0.00003 *
 * Al              9      0.00971      0.00173      0.00291 *
 * Al             10      0.00898      0.00155     -0.00296 *
 * Al             11      0.00061      0.00208      0.00109 *
 * Al             12      0.00037      0.00223     -0.00113 *
 * Al             13      0.00117      0.00104      0.00002 *
 * Al             14      0.00390      0.00469     -0.00261 *
 * Al             15      0.00147      0.00114      0.00030 *
 * Al             16      0.00379      0.00472      0.00255 *
 * Al             17      0.00509      0.00238      0.00244 *
 * Al             18      0.00295     -0.00123     -0.00020 *
 * Al             19      0.00495      0.00249     -0.00238 *
 * Al             20      0.00318     -0.00116     -0.00016 *
 * Al             21      0.00190     -0.00053     -0.00118 *
 * Al             22      0.00170     -0.00031      0.00133 *
 * Al             23      0.01137     -0.00033     -0.00314 *
 * Al             24      0.01049     -0.00040      0.00304 *
 * Ti              1     -0.11558      0.00150      0.00024 *
 * Ti              2      0.00807      0.00016      0.00005 *
 * Ti              3      0.00351      0.00230      0.00002 *
 * Ti              4      0.00148     -0.00031     -0.00005 *
 * Ti              5      0.00535      0.00201     -0.00226 *
 * Ti              6      0.00154      0.00178     -0.00236 *
 * Ti              7      0.00166      0.00172      0.00225 *
 * Ti              8      0.00533      0.00199      0.00216 *
 *                                                          *
 ************************************************************

 ***************** Stress Tensor *****************
 *                                               *
 *          Cartesian components (GPa)           *
 * --------------------------------------------- *
 *             x             y             z     *
 *                                               *
 *  x     -0.588085     -0.013509      0.126006  *
 *  y     -0.013509     -0.574598      0.079678  *
 *  z      0.126006      0.079678     -0.517007  *
 *                                               *
 *  Pressure:    0.5599                          *
 *                                               *
 *************************************************

 Pseudo atomic calculation performed for Al 3s2 3p1

 Converged in 15 iterations to a total energy of -105.5952 eV


 Pseudo atomic calculation performed for Ti 3s2 3p6 3d2 4s2

 Converged in 31 iterations to a total energy of -1585.9998 eV

Charge spilling parameter for spin component 1 = 0.51%

     Atomic Populations (Mulliken)
     -----------------------------
Species          Ion     s      p      d      f     Total  Charge (e)
=====================================================================
  Al              1     1.02   1.87   0.00   0.00   2.89     0.11
  Al              2     1.02   1.87   0.00   0.00   2.89     0.11
  Al              3     1.02   1.87   0.00   0.00   2.89     0.11
  Al              4     1.02   1.87   0.00   0.00   2.89     0.11
  Al              5     1.02   1.87   0.00   0.00   2.89     0.11
  Al              6     1.02   1.87   0.00   0.00   2.89     0.11
  Al              7     1.02   1.87   0.00   0.00   2.89     0.11
  Al              8     1.02   1.87   0.00   0.00   2.89     0.11
  Al              9     0.99   2.09   0.00   0.00   3.08    -0.08
  Al             10     0.99   2.09   0.00   0.00   3.08    -0.08
  Al             11     0.99   2.09   0.00   0.00   3.08    -0.08
  Al             12     0.99   2.09   0.00   0.00   3.08    -0.08
  Al             13     0.99   2.09   0.00   0.00   3.08    -0.08
  Al             14     0.99   2.09   0.00   0.00   3.08    -0.08
  Al             15     0.99   2.09   0.00   0.00   3.08    -0.08
  Al             16     0.99   2.09   0.00   0.00   3.08    -0.08
  Al             17     0.99   2.09   0.00   0.00   3.08    -0.08
  Al             18     0.99   2.09   0.00   0.00   3.08    -0.08
  Al             19     0.99   2.09   0.00   0.00   3.08    -0.08
  Al             20     0.99   2.09   0.00   0.00   3.08    -0.08
  Al             21     0.99   2.09   0.00   0.00   3.08    -0.08
  Al             22     0.99   2.09   0.00   0.00   3.08    -0.08
  Al             23     0.99   2.09   0.00   0.00   3.08    -0.08
  Al             24     0.99   2.09   0.00   0.00   3.08    -0.08
  Ti              1     2.19   6.70   3.06   0.00  11.95     0.05
  Ti              2     2.19   6.70   3.06   0.00  11.95     0.05
  Ti              3     2.19   6.70   3.06   0.00  11.95     0.05
  Ti              4     2.19   6.70   3.06   0.00  11.95     0.05
  Ti              5     2.19   6.70   3.06   0.00  11.95     0.05
  Ti              6     2.19   6.70   3.06   0.00  11.95     0.05
  Ti              7     2.19   6.70   3.06   0.00  11.95     0.05
  Ti              8     2.19   6.70   3.06   0.00  11.95     0.05
=====================================================================

                 Bond                   Population      Length (A)
======================================================================
             Al 3  -- Ti 1                   0.29        2.66401
             Al 1  -- Ti 8                   0.29        2.66791
             Al 6  -- Ti 2                   0.29        2.66791
             Al 4  -- Ti 5                   0.29        2.66791
             Al 7  -- Ti 3                   0.29        2.66791
             Al 2  -- Ti 7                   0.29        2.66791
             Al 3  -- Ti 7                   0.29        2.66791
             Al 5  -- Ti 4                   0.29        2.66791
             Al 9  -- Al 23                  0.39        2.66791
             Al 16 -- Al 19                  0.40        2.66791
             Al 15 -- Al 20                  0.40        2.66791
             Al 10 -- Al 21                  0.40        2.66791
             Al 14 -- Al 17                  0.40        2.66791
             Al 11 -- Al 24                  0.40        2.66791
             Al 16 -- Al 18                  0.40        2.66791
             Al 12 -- Al 22                  0.40        2.66791
             Al 7  -- Ti 2                   0.29        2.66791
             Al 3  -- Ti 6                   0.29        2.66791
             Al 2  -- Ti 6                   0.29        2.66791
             Al 8  -- Ti 4                   0.29        2.66791
             Al 1  -- Ti 5                   0.29        2.66791
             Al 6  -- Ti 3                   0.29        2.66791
             Al 4  -- Ti 8                   0.29        2.66791
             Al 10 -- Al 24                  0.40        2.66791
             Al 13 -- Al 18                  0.40        2.66791
             Al 12 -- Al 23                  0.40        2.66791
             Al 9  -- Al 22                  0.40        2.66791
             Al 14 -- Al 20                  0.40        2.66791
             Al 11 -- Al 21                  0.40        2.66791
             Al 15 -- Al 17                  0.40        2.66791
             Al 13 -- Al 19                  0.40        2.66791
             Al 5  -- Ti 1                   0.29        2.66793
             Al 8  -- Ti 1                   0.29        2.66794
             Al 11 -- Al 18                  0.39        2.66920
             Al 16 -- Al 21                  0.39        2.66920
             Al 13 -- Al 24                  0.39        2.66920
             Al 9  -- Al 20                  0.39        2.66920
             Al 14 -- Al 23                  0.39        2.66920
             Al 12 -- Al 17                  0.39        2.66920
             Al 15 -- Al 22                  0.39        2.66920
             Al 10 -- Al 19                  0.39        2.66920
             Al 1  -- Ti 2                   0.29        2.66933
             Al 3  -- Ti 4                   0.29        2.66933
             Al 6  -- Ti 5                   0.29        2.66933
             Al 8  -- Ti 6                   0.29        2.66933
             Al 8  -- Ti 7                   0.29        2.66933
             Al 7  -- Ti 8                   0.29        2.66933
             Al 2  -- Ti 4                   0.29        2.66933
             Al 7  -- Ti 5                   0.29        2.66933
             Al 6  -- Ti 8                   0.29        2.66933
             Al 1  -- Ti 3                   0.29        2.66933
             Al 5  -- Ti 7                   0.29        2.66933
             Al 4  -- Ti 3                   0.29        2.66933
             Al 5  -- Ti 6                   0.29        2.66933
             Al 4  -- Ti 2                   0.29        2.66933
             Al 16 -- Al 24                  0.39        2.66946
             Al 15 -- Al 23                  0.39        2.66946
             Al 14 -- Al 22                  0.39        2.66946
             Al 10 -- Al 18                  0.39        2.66946
             Al 9  -- Al 17                  0.39        2.66946
             Al 12 -- Al 20                  0.39        2.66946
             Al 11 -- Al 19                  0.39        2.66946
             Al 13 -- Al 21                  0.39        2.66946
             Al 2  -- Ti 1                   0.29        2.67468
             Al 23 -- Ti 1                   0.16        2.82555
             Al 9  -- Ti 1                   0.16        2.82666
             Al 14 -- Ti 1                   0.16        2.83059
             Al 17 -- Ti 1                   0.16        2.83169
             Al 22 -- Ti 4                   0.16        2.83437
             Al 13 -- Ti 6                   0.16        2.83437
             Al 16 -- Ti 7                   0.16        2.83437
             Al 21 -- Ti 7                   0.16        2.83437
             Al 10 -- Ti 5                   0.16        2.83437
             Al 24 -- Ti 6                   0.16        2.83437
             Al 15 -- Ti 4                   0.16        2.83437
             Al 13 -- Ti 2                   0.16        2.83437
             Al 19 -- Ti 5                   0.16        2.83437
             Al 15 -- Ti 8                   0.16        2.83437
             Al 21 -- Ti 3                   0.16        2.83437
             Al 20 -- Ti 6                   0.16        2.83437
             Al 17 -- Ti 3                   0.16        2.83437
             Al 11 -- Ti 8                   0.16        2.83437
             Al 20 -- Ti 2                   0.16        2.83437
             Al 16 -- Ti 3                   0.16        2.83437
             Al 9  -- Ti 6                   0.16        2.83437
             Al 23 -- Ti 5                   0.16        2.83437
             Al 22 -- Ti 8                   0.16        2.83437
             Al 12 -- Ti 3                   0.16        2.83437
             Al 18 -- Ti 8                   0.16        2.83437
             Al 9  -- Ti 2                   0.16        2.83437
             Al 18 -- Ti 4                   0.16        2.83437
             Al 12 -- Ti 7                   0.16        2.83437
             Al 24 -- Ti 2                   0.16        2.83437
             Al 17 -- Ti 7                   0.16        2.83437
             Al 11 -- Ti 4                   0.16        2.83437
             Al 14 -- Ti 5                   0.16        2.83437
             Al 4  -- Al 12                  0.11        2.83443
             Al 2  -- Al 10                  0.11        2.83443
             Al 7  -- Al 19                  0.11        2.83443
             Al 8  -- Al 20                  0.11        2.83443
             Al 2  -- Al 18                  0.11        2.83443
             Al 7  -- Al 11                  0.11        2.83443
             Al 5  -- Al 21                  0.11        2.83443
             Al 8  -- Al 24                  0.11        2.83443
             Al 6  -- Al 10                  0.11        2.83443
             Al 3  -- Al 15                  0.11        2.83443
             Al 1  -- Al 9                   0.11        2.83443
             Al 5  -- Al 13                  0.11        2.83443
             Al 2  -- Al 22                  0.11        2.83443
             Al 3  -- Al 11                  0.11        2.83443
             Al 5  -- Al 17                  0.11        2.83443
             Al 4  -- Al 24                  0.11        2.83443
             Al 7  -- Al 15                  0.11        2.83443
             Al 6  -- Al 14                  0.11        2.83443
             Al 2  -- Al 14                  0.11        2.83443
             Al 4  -- Al 16                  0.11        2.83443
             Al 8  -- Al 12                  0.11        2.83443
             Al 7  -- Al 23                  0.11        2.83443
             Al 5  -- Al 9                   0.11        2.83443
             Al 1  -- Al 13                  0.11        2.83443
             Al 6  -- Al 22                  0.11        2.83443
             Al 6  -- Al 18                  0.11        2.83443
             Al 8  -- Al 16                  0.11        2.83443
             Al 3  -- Al 23                  0.11        2.83443
             Al 1  -- Al 21                  0.11        2.83443
             Al 3  -- Al 19                  0.11        2.83443
             Al 4  -- Al 20                  0.11        2.83443
             Al 1  -- Al 17                  0.11        2.83443
             Al 4  -- Al 19                  0.11        2.83542
             Al 8  -- Al 14                  0.11        2.83542
             Al 3  -- Al 20                  0.11        2.83542
             Al 1  -- Al 18                  0.11        2.83542
             Al 7  -- Al 13                  0.11        2.83542
             Al 6  -- Al 20                  0.11        2.83542
             Al 3  -- Al 21                  0.11        2.83542
             Al 1  -- Al 23                  0.11        2.83542
             Al 2  -- Al 12                  0.11        2.83542
             Al 2  -- Al 17                  0.11        2.83542
             Al 1  -- Al 11                  0.11        2.83542
             Al 3  -- Al 9                   0.11        2.83542
             Al 4  -- Al 10                  0.11        2.83542
             Al 2  -- Al 13                  0.11        2.83542
             Al 6  -- Al 16                  0.11        2.83542
             Al 8  -- Al 18                  0.11        2.83542
             Al 5  -- Al 15                  0.11        2.83542
             Al 4  -- Al 22                  0.11        2.83542
             Al 7  -- Al 17                  0.11        2.83542
             Al 8  -- Al 23                  0.11        2.83542
             Al 6  -- Al 9                   0.11        2.83542
             Al 5  -- Al 22                  0.11        2.83542
             Al 5  -- Al 10                  0.11        2.83542
             Al 3  -- Al 16                  0.11        2.83542
             Al 7  -- Al 12                  0.11        2.83542
             Al 7  -- Al 24                  0.11        2.83542
             Al 4  -- Al 15                  0.11        2.83542
             Al 6  -- Al 21                  0.11        2.83542
             Al 8  -- Al 11                  0.11        2.83542
             Al 2  -- Al 24                  0.11        2.83542
             Al 5  -- Al 19                  0.11        2.83542
             Al 1  -- Al 14                  0.11        2.83542
             Al 19 -- Ti 3                   0.16        2.83548
             Al 20 -- Ti 4                   0.16        2.83548
             Al 21 -- Ti 5                   0.16        2.83548
             Al 18 -- Ti 2                   0.16        2.83548
             Al 22 -- Ti 6                   0.16        2.83548
             Al 10 -- Ti 7                   0.16        2.83548
             Al 9  -- Ti 8                   0.16        2.83548
             Al 11 -- Ti 6                   0.16        2.83548
             Al 12 -- Ti 5                   0.16        2.83548
             Al 15 -- Ti 2                   0.16        2.83548
             Al 14 -- Ti 6                   0.16        2.83548
             Al 23 -- Ti 2                   0.16        2.83548
             Al 12 -- Ti 4                   0.16        2.83548
             Al 11 -- Ti 3                   0.16        2.83548
             Al 10 -- Ti 2                   0.16        2.83548
             Al 18 -- Ti 7                   0.16        2.83548
             Al 17 -- Ti 8                   0.16        2.83548
             Al 24 -- Ti 8                   0.16        2.83548
             Al 14 -- Ti 3                   0.16        2.83548
             Al 23 -- Ti 7                   0.16        2.83548
             Al 13 -- Ti 4                   0.16        2.83548
             Al 13 -- Ti 5                   0.16        2.83548
             Al 15 -- Ti 7                   0.16        2.83548
             Al 16 -- Ti 8                   0.16        2.83548
             Al 22 -- Ti 3                   0.16        2.83548
             Al 20 -- Ti 5                   0.16        2.83548
             Al 21 -- Ti 4                   0.16        2.83548
             Al 19 -- Ti 6                   0.16        2.83548
             Al 19 -- Ti 1                   0.16        2.83818
             Al 16 -- Ti 1                   0.16        2.83929
             Al 10 -- Ti 1                   0.16        2.84320
             Al 24 -- Ti 1                   0.16        2.84431
======================================================================

 
 A BibTeX formatted list of references used in this run has been written to 
 castep.bib
 
Initialisation time =     14.22 s
Calculation time    =   1541.04 s
Finalisation time   =      0.14 s
Total time          =   1555.39 s
Peak Memory Use     = 2115756 kB
  
Overall parallel efficiency rating: Excellent (97%)                             
  
Data was distributed by:-
k-point (40-way); efficiency rating: Excellent (97%)                            
 +-------------------------------------------------+
 |                                                 |
 |      CCC   AA    SSS  TTTTT  EEEEE  PPPP        |
 |     C     A  A  S       T    E      P   P       |
 |     C     AAAA   SS     T    EEE    PPPP        |
 |     C     A  A     S    T    E      P           |
 |      CCC  A  A  SSS     T    EEEEE  P           |
 |                                                 |
 +-------------------------------------------------+
 |                                                 |
 | Welcome to Academic Release CASTEP version 17.21|          
 | Ab Initio Total Energy Program                  |
 |                                                 |
 | Authors:                                        |
 | M. Segall, M. Probert, C. Pickard, P. Hasnip,   |
 | S. Clark, K. Refson, J. R. Yates, M. Payne      |
 |                                                 |
 | Contributors:                                   |
 | P. Lindan, P. Haynes, J. White, V. Milman,      |
 | N. Govind, M. Gibson, P. Tulip, V. Cocula,      |
 | B. Montanari, D. Quigley, M. Glover,            |
 | L. Bernasconi, A. Perlov, M. Plummer,           |
 | E. McNellis, J. Meyer, J. Gale, D. Jochym       |
 | J. Aarons, B. Walker, R. Gillen, D. Jones       |
 | T. Green, I. J. Bush, C. J. Armstrong,          |
 | E. J. Higgins, E. L. Brown, M. S. McFly,        |
 | J. Wilkins, B-C. Shih, P. J. P. Byrne           |
 |                                                 |
 | Copyright (c) 2000 - 2017                       |
 |                                                 |
 |     Distributed under the terms of an           |
 |     Agreement between the United Kingdom        |
 |     Car-Parrinello (UKCP) Consortium,           |
 |     Daresbury Laboratory and Accelrys, Inc.     |
 |                                                 |
 | Please cite                                     |
 |                                                 |
 |     "First principles methods using CASTEP"     |
 |                                                 |
 |         Zeitschrift fuer Kristallographie       |
 |           220(5-6) pp. 567-570 (2005)           |
 |                                                 |
 | S. J. Clark, M. D. Segall, C. J. Pickard,       |
 | P. J. Hasnip, M. J. Probert, K. Refson,         |
 | M. C. Payne                                     |
 |                                                 |
 |       in all publications arising from          |
 |              your use of CASTEP                 |
 |                                                 |
 +-------------------------------------------------+


 Compiled for linux_x86_64_gfortran6.0-XT on Fri, 21 Jul 2017 10:20:05 +0100
 from code version 056e886bd5a1+ Castep172_branch Mon, 15 May 2017 14:45:35 +0100
 Compiler: GNU Fortran 6.3.0; Optimisation: fast
 MATHLIBS: Intel MKL(2017.0.0) (LAPACK version 3.6.0)
 FFT Lib : fftw3 version commercial-fftw-3.3.4-sse2-avx
 Fundamental constants values: CODATA 2010

 Run started: Thu, 31 Oct 2019 13:36:13 +0000

 Atomic calculation performed for Al: 1s2 2s2 2p6 3s2 3p1

 Converged in 55 iterations to an ae energy of -6578.725 eV

   ============================================================                
   | Pseudopotential Report - Date of generation 31-10-2019   |                
   ------------------------------------------------------------                
   | Element: Al Ionic charge:  3.00 Level of theory: LDA     |                
   | Atomic Solver: Koelling-Harmon                           |                
   |                                                          |                
   |               Reference Electronic Structure             |                
   |         Orbital         Occupation         Energy        |                
   |            3s              2.000           -0.288        |                
   |            3p              1.000           -0.102        |                
   |                                                          |                
   |                 Pseudopotential Definition               |                
   |        Beta     l      e      Rc     scheme   norm       |                
   |          1      0   -0.288   2.192     qc      0         |                
   |          2      0    0.250   2.192     qc      0         |                
   |          3      1   -0.102   2.192     qc      0         |                
   |          4      1    0.250   2.192     qc      0         |                
   |          5      2    0.000   2.000     qc      0         |                
   |          6      2    0.250   2.000     qc      0         |                
   |         loc     3    0.000   2.192     pn      0         |                
   |                                                          |                
   | Augmentation charge Rinner = 1.398                       |                
   | Partial core correction Rc = 1.398                       |                
   ------------------------------------------------------------                
   | "3|2.2|2.2|1.4|4|5|5|30:31:32U2U2"                       |                
   ------------------------------------------------------------                
   |      Author: Chris J. Pickard, Cambridge University      |                
   ============================================================                

 Atomic calculation performed for Ti: 1s2 2s2 2p6 3s2 3p6 3d2 4s2

 Converged in 78 iterations to an ae energy of -23176.516 eV

   ============================================================                
   | Pseudopotential Report - Date of generation 31-10-2019   |                
   ------------------------------------------------------------                
   | Element: Ti Ionic charge: 12.00 Level of theory: LDA     |                
   | Atomic Solver: Koelling-Harmon                           |                
   |                                                          |                
   |               Reference Electronic Structure             |                
   |         Orbital         Occupation         Energy        |                
   |            3s              2.000           -2.288        |                
   |            3p              6.000           -1.425        |                
   |            4s              2.000           -0.169        |                
   |            3d              2.000           -0.164        |                
   |                                                          |                
   |                 Pseudopotential Definition               |                
   |        Beta     l      e      Rc     scheme   norm       |                
   |          1      0   -2.288   1.793     qc      0         |                
   |          2      0   -0.169   1.793     qc      0         |                
   |          3      0    0.250   1.793     qc      0         |                
   |          4      1   -1.425   1.793     qc      0         |                
   |          5      1    0.250   1.793     qc      0         |                
   |          6      2   -0.164   1.793     qc      0         |                
   |          7      2    0.250   1.793     qc      0         |                
   |         loc     3    0.000   1.793     pn      0         |                
   |                                                          |                
   | Augmentation charge Rinner = 1.263                       |                
   | Partial core correction Rc = 1.263                       |                
   ------------------------------------------------------------                
   | "3|1.8|9|10|11|30U:40:31:32(qc=5.5)"                     |                
   ------------------------------------------------------------                
   |      Author: Chris J. Pickard, Cambridge University      |                
   ============================================================                

 Pseudo atomic calculation performed for Al 3s2 3p1

 Converged in 15 iterations to a total energy of -105.5952 eV


 Pseudo atomic calculation performed for Ti 3s2 3p6 3d2 4s2

 Converged in 31 iterations to a total energy of -1585.9998 eV

 Calculation parallelised over 40 processes.
 Data is distributed by k-point(40-way)

 ************************************ Title ************************************
 

 ***************************** General Parameters ******************************
  
 output verbosity                               : normal  (1)
 write checkpoint data to                       : castep.check
 type of calculation                            : single point energy
 stress calculation                             : on
 density difference calculation                 : off
 electron localisation func (ELF) calculation   : off
 Hirshfeld analysis                             : off
 unlimited duration calculation
 timing information                             : on
 memory usage estimate                          : on
 write final potential to formatted file        : off
 write final density to formatted file          : off
 write BibTeX reference list                    : on
 write OTFG pseudopotential files               : on
 write electrostatic potential file             : on
 write bands file                               : on
 checkpoint writing                             : off
  
 output         length unit                     : A
 output           mass unit                     : amu
 output           time unit                     : ps
 output         charge unit                     : e
 output           spin unit                     : hbar/2
 output         energy unit                     : eV
 output          force unit                     : eV/A
 output       velocity unit                     : A/ps
 output       pressure unit                     : GPa
 output     inv_length unit                     : 1/A
 output      frequency unit                     : cm-1
 output force constant unit                     : eV/A**2
 output         volume unit                     : A**3
 output   IR intensity unit                     : (D/A)**2/amu
 output         dipole unit                     : D
 output         efield unit                     : eV/A/e
 output        entropy unit                     : J/mol/K
  
 wavefunctions paging                           : none
 random number generator seed                   : randomised (133613187)
 data distribution                              : optimal for this architecture
 optimization strategy                          : maximize speed(+++)

 *********************** Exchange-Correlation Parameters ***********************
  
 using functional                               : Local Density Approximation
 relativistic treatment                         : Koelling-Harmon
 DFT+D: Semi-empirical dispersion correction    : off

 ************************* Pseudopotential Parameters **************************
  
 pseudopotential representation                 : reciprocal space
 <beta|phi> representation                      : reciprocal space
 spin-orbit coupling                            : off

 **************************** Basis Set Parameters *****************************
  
 plane wave basis set cut-off                   :   600.0000   eV
 size of standard grid                          :     1.7500
 size of   fine   gmax                          :    21.9610   1/A
 finite basis set correction                    : automatic
 number of sample energies                      :          3
           sample  spacing                      :     5.0000   eV

 **************************** Electronic Parameters ****************************
  
 number of  electrons                           :  168.0    
 net charge of system                           :  0.000    
 treating system as non-spin-polarized
 number of bands                                :        101

 ********************* Electronic Minimization Parameters **********************
  
 Method: Treating system as metallic with density mixing treatment of electrons,
         and number of  SD  steps               :          1
         and number of  CG  steps               :          4
  
 total energy / atom convergence tol.           : 0.1000E-04   eV
 eigen-energy convergence tolerance             : 0.1000E-05   eV
 max force / atom convergence tol.              : ignored
 convergence tolerance window                   :          3   cycles
 max. number of SCF cycles                      :        250
 number of fixed-spin iterations                :         10
 smearing scheme                                : Gaussian
 smearing width                                 : 0.1000       eV
 Fermi energy convergence tolerance             : 0.2721E-13   eV
 periodic dipole correction                     : NONE

 ************************** Density Mixing Parameters **************************
  
 density-mixing scheme                          : Pulay
 max. length of mixing history                  :         20
 charge density mixing amplitude                : 0.8000    
 cut-off energy for mixing                      :  600.0       eV

 *********************** Population Analysis Parameters ************************
  
 Population analysis with cutoff                :  3.000       A

 *******************************************************************************
  

                           -------------------------------
                                      Unit Cell
                           -------------------------------
        Real Lattice(A)                      Reciprocal Lattice(1/A)
  10.0058820   0.0079990   0.0022210        0.6280577  -0.2992097   0.5886757
   4.3017470   9.0339740   0.0022210       -0.0006868   0.6956886   0.5886758
  -7.1526280  -4.5202370   5.3336060       -0.0002612  -0.0001651   1.1775467

                       Lattice parameters(A)       Cell Angles
                    a =   10.005885          alpha =  135.672917
                    b =   10.005884          beta  =  135.672918
                    c =   10.001999          gamma =   64.491601

                       Current cell volume =  482.137121       A**3
                                   density =    2.137344   AMU/A**3
                                           =    3.549143     g/cm^3

                           -------------------------------
                                     Cell Contents
                           -------------------------------
                         Total number of ions in cell =   32
                      Total number of species in cell =    2
                        Max number of any one species =   24

            xxxxxxxxxxxxxxxxxxxxxxxxxxxxxxxxxxxxxxxxxxxxxxxxxxxxxxxxxxxx
            x  Element    Atom        Fractional coordinates of atoms  x
            x            Number           u          v          w      x
            x----------------------------------------------------------x
            x  Al           1         0.249998   0.250000   1.000000   x 
            x  Al           2         0.749998   0.250000   1.000000   x 
            x  Al           3         0.249998   0.750000   1.000000   x 
            x  Al           4         0.749998   0.750000   1.000000   x 
            x  Al           5         0.249998   0.250000   0.500000   x 
            x  Al           6         0.749997   0.250000   0.500000   x 
            x  Al           7         0.249998   0.750000   0.500000   x 
            x  Al           8         0.749998   0.750000   0.500000   x 
            x  Al           9         0.375003   0.124994   0.250000   x 
            x  Al          10         0.875003   0.124994   0.250000   x 
            x  Al          11         0.375004   0.624994   0.250000   x 
            x  Al          12         0.875003   0.624994   0.250000   x 
            x  Al          13         0.375004   0.124994   0.750000   x 
            x  Al          14         0.875004   0.124994   0.750000   x 
            x  Al          15         0.375004   0.624994   0.750000   x 
            x  Al          16         0.875004   0.624994   0.750000   x 
            x  Al          17         0.124991   0.375006   0.250000   x 
            x  Al          18         0.624992   0.375006   0.250000   x 
            x  Al          19         0.124991   0.875006   0.250000   x 
            x  Al          20         0.624991   0.875006   0.250000   x 
            x  Al          21         0.124991   0.375006   0.750000   x 
            x  Al          22         0.624992   0.375006   0.750000   x 
            x  Al          23         0.124992   0.875006   0.750000   x 
            x  Al          24         0.624992   0.875006   0.750000   x 
            x  Ti           1         0.999998   1.000000   1.001000   x 
            x  Ti           2         0.499998   1.000000   1.000000   x 
            x  Ti           3         0.999998   0.500000   1.000000   x 
            x  Ti           4         0.499998   0.500000   1.000000   x 
            x  Ti           5         0.999997   1.000000   0.500000   x 
            x  Ti           6         0.499998   1.000000   0.500000   x 
            x  Ti           7         0.999997   0.500000   0.500000   x 
            x  Ti           8         0.499997   0.500000   0.500000   x 
            xxxxxxxxxxxxxxxxxxxxxxxxxxxxxxxxxxxxxxxxxxxxxxxxxxxxxxxxxxxx


                         No user defined ionic velocities

                           -------------------------------
                                   Details of Species
                           -------------------------------

                               Mass of species in AMU
                                    Al   26.9815400
                                    Ti   47.8670000

                          Electric Quadrupole Moment (Barn)
                                    Al    0.1466000 Isotope 27
                                    Ti    0.3020000 Isotope 47

                          Files used for pseudopotentials:
                                    Al 3|2.2|2.2|1.4|4|5|5|30:31:32U2U2
                                    Ti 3|1.8|9|10|11|30U:40:31:32(qc=5.5)

                           -------------------------------
                              k-Points For BZ Sampling
                           -------------------------------
                       MP grid size for SCF calculation is  4  4  5
                            with an offset of   0.000  0.000  0.000
                       Number of kpoints used =            40

                           -------------------------------
                               Symmetry and Constraints
                           -------------------------------

                      Maximum deviation from symmetry =  0.00000         ANG

                      Number of symmetry operations   =           1
                      Number of ionic constraints     =           3
                      Point group of crystal =     1: C1, 1, 1
                      Space group of crystal =     8: Cm, C -2y

             Set iprint > 1 for details on symmetry rotations/translations

                         Centre of mass is constrained
             Set iprint > 1 for details of linear ionic constraints

                         Number of cell constraints= 0
                         Cell constraints are:  1 2 3 4 5 6

                         External pressure/stress (GPa)
                          0.00000   0.00000   0.00000
                                    0.00000   0.00000
                                              0.00000
  
+---------------- MEMORY AND SCRATCH DISK ESTIMATES PER PROCESS --------------+
|                                                     Memory          Disk    |
| Baseline code, static data and system overhead      171.0 MB         0.0 MB |
| BLAS internal memory storage                          0.0 MB         0.0 MB |
| Model and support data                             1322.3 MB         0.0 MB |
| Electronic energy minimisation requirements         206.1 MB         0.0 MB |
| Force calculation requirements                       54.1 MB         0.0 MB |
| Stress calculation requirements                      59.8 MB         0.0 MB |
|                                               ----------------------------- |
| Approx. total storage required per process         1699.4 MB         0.0 MB |
|                                                                             |
| Requirements will fluctuate during execution and may exceed these estimates |
+-----------------------------------------------------------------------------+
Calculating finite basis set correction with  3 cut-off energies.
Calculating total energy with cut-off of  590.000 eV.
------------------------------------------------------------------------ <-- SCF
SCF loop      Energy           Fermi           Energy gain       Timer   <-- SCF
                               energy          per atom          (sec)   <-- SCF
------------------------------------------------------------------------ <-- SCF
Initial  -1.09424263E+004  0.00000000E+000                        34.82  <-- SCF
      1  -1.48950275E+004  9.37247520E+000   1.23518785E+002      64.41  <-- SCF
      2  -1.53729818E+004  6.63774617E+000   1.49360744E+001      83.99  <-- SCF
      3  -1.53984456E+004  6.49658619E+000   7.95742319E-001     106.31  <-- SCF
      4  -1.53976584E+004  6.50227812E+000  -2.46009377E-002     144.24  <-- SCF
      5  -1.53976602E+004  6.55677531E+000   5.85933768E-005     181.90  <-- SCF
      6  -1.53976220E+004  6.51160793E+000  -1.19498646E-003     218.30  <-- SCF
      7  -1.53976154E+004  6.48719478E+000  -2.06720961E-004     254.53  <-- SCF
      8  -1.53976059E+004  6.50947083E+000  -2.94999941E-004     290.69  <-- SCF
      9  -1.53976059E+004  6.50976908E+000  -1.59858623E-006     322.95  <-- SCF
     10  -1.53976059E+004  6.50917806E+000  -7.37329071E-007     351.55  <-- SCF
     11  -1.53976059E+004  6.50907838E+000  -1.19478945E-007     380.00  <-- SCF
------------------------------------------------------------------------ <-- SCF
 
Final energy, E             =  -15397.54561329     eV
Final free energy (E-TS)    =  -15397.60586446     eV
(energies not corrected for finite basis set)
 
NB est. 0K energy (E-0.5TS)      =  -15397.57573887     eV
 
Calculating total energy with cut-off of  595.000 eV.
------------------------------------------------------------------------ <-- SCF
SCF loop      Energy           Fermi           Energy gain       Timer   <-- SCF
                               energy          per atom          (sec)   <-- SCF
------------------------------------------------------------------------ <-- SCF
Initial  -1.53975456E+004  0.00000000E+000                       408.19  <-- SCF
      1  -1.53976061E+004  6.50784465E+000   1.89040144E-003     428.62  <-- SCF
      2  -1.53976061E+004  6.50784453E+000   1.74972193E-007     457.07  <-- SCF
      3  -1.53976077E+004  6.51117284E+000   4.88291571E-005     491.74  <-- SCF
      4  -1.53976060E+004  6.50990812E+000  -5.17329355E-005     526.14  <-- SCF
      5  -1.53976060E+004  6.50887850E+000  -2.64837782E-007     554.52  <-- SCF
      6  -1.53976060E+004  6.50871071E+000   1.12694055E-007     582.44  <-- SCF
------------------------------------------------------------------------ <-- SCF
 
Final energy, E             =  -15397.54573317     eV
Final free energy (E-TS)    =  -15397.60600402     eV
(energies not corrected for finite basis set)
 
NB est. 0K energy (E-0.5TS)      =  -15397.57586860     eV
 
Calculating total energy with cut-off of  600.000 eV.
------------------------------------------------------------------------ <-- SCF
SCF loop      Energy           Fermi           Energy gain       Timer   <-- SCF
                               energy          per atom          (sec)   <-- SCF
------------------------------------------------------------------------ <-- SCF
Initial  -1.53975457E+004  0.00000000E+000                       610.64  <-- SCF
      1  -1.53976062E+004  6.50844074E+000   1.89050414E-003     630.85  <-- SCF
      2  -1.53976062E+004  6.50844066E+000   1.50453184E-007     658.42  <-- SCF
      3  -1.53976079E+004  6.51003200E+000   5.32294567E-005     693.40  <-- SCF
      4  -1.53976061E+004  6.50941915E+000  -5.64041960E-005     727.81  <-- SCF
      5  -1.53976061E+004  6.50888487E+000   1.73586561E-007     756.55  <-- SCF
      6  -1.53976061E+004  6.50874597E+000   6.13080122E-008     784.42  <-- SCF
------------------------------------------------------------------------ <-- SCF
 
Final energy, E             =  -15397.54586456     eV
Final free energy (E-TS)    =  -15397.60613322     eV
(energies not corrected for finite basis set)
 
NB est. 0K energy (E-0.5TS)      =  -15397.57599889     eV
 
 For future reference: finite basis dEtot/dlog(Ecut) =      -0.015842eV
 Total energy corrected for finite basis set =  -15397.606132 eV

 ******************* Unconstrained Forces *******************
 *                                                          *
 *               Cartesian components (eV/A)                *
 * -------------------------------------------------------- *
 *                         x            y            z      *
 *                                                          *
 * Al              1     -0.00029     -0.00027      0.00000 *
 * Al              2     -0.00046     -0.00011      0.00088 *
 * Al              3     -0.00028     -0.00035      0.00103 *
 * Al              4     -0.00033     -0.00012      0.00039 *
 * Al              5     -0.00026     -0.00026      0.01696 *
 * Al              6      0.00206      0.00110      0.00011 *
 * Al              7      0.00187      0.00138      0.00023 *
 * Al              8     -0.00040     -0.00017      0.01617 *
 * Al              9     -0.00673      0.00018     -0.00062 *
 * Al             10     -0.01037     -0.00126      0.00508 *
 * Al             11     -0.00105     -0.00060     -0.00020 *
 * Al             12     -0.00226      0.00031      0.00112 *
 * Al             13     -0.00244      0.00040      0.00123 *
 * Al             14     -0.00629     -0.00590      0.00460 *
 * Al             15     -0.00262      0.00125      0.00011 *
 * Al             16     -0.00425     -0.00414     -0.00064 *
 * Al             17     -0.00267     -0.00619     -0.00061 *
 * Al             18     -0.00108     -0.00075     -0.00027 *
 * Al             19     -0.00550     -0.00877      0.00517 *
 * Al             20     -0.00072     -0.00213      0.00111 *
 * Al             21     -0.00067     -0.00243      0.00122 *
 * Al             22     -0.00007     -0.00296      0.00004 *
 * Al             23     -0.00795     -0.00310      0.00468 *
 * Al             24     -0.00559     -0.00200     -0.00062 *
 * Ti              1      0.08206      0.05186     -0.06340 *
 * Ti              2     -0.00580     -0.00117      0.00112 *
 * Ti              3     -0.00354     -0.00473      0.00111 *
 * Ti              4     -0.00096     -0.00060      0.00123 *
 * Ti              5     -0.00594     -0.00375      0.00431 *
 * Ti              6     -0.00316      0.00068     -0.00069 *
 * Ti              7     -0.00078     -0.00316     -0.00070 *
 * Ti              8     -0.00355     -0.00226     -0.00014 *
 *                                                          *
 ************************************************************

 ******************** Constrained Forces ********************
 *                                                          *
 *               Cartesian components (eV/A)                *
 * -------------------------------------------------------- *
 *                         x            y            z      *
 *                                                          *
 * Al              1     -0.00029     -0.00027      0.00000 *
 * Al              2     -0.00046     -0.00011      0.00088 *
 * Al              3     -0.00028     -0.00035      0.00103 *
 * Al              4     -0.00033     -0.00012      0.00039 *
 * Al              5     -0.00026     -0.00026      0.01696 *
 * Al              6      0.00206      0.00110      0.00011 *
 * Al              7      0.00187      0.00138      0.00023 *
 * Al              8     -0.00040     -0.00017      0.01617 *
 * Al              9     -0.00673      0.00018     -0.00062 *
 * Al             10     -0.01037     -0.00126      0.00508 *
 * Al             11     -0.00105     -0.00060     -0.00020 *
 * Al             12     -0.00226      0.00031      0.00112 *
 * Al             13     -0.00244      0.00040      0.00123 *
 * Al             14     -0.00629     -0.00590      0.00460 *
 * Al             15     -0.00262      0.00125      0.00011 *
 * Al             16     -0.00425     -0.00414     -0.00064 *
 * Al             17     -0.00267     -0.00619     -0.00061 *
 * Al             18     -0.00108     -0.00075     -0.00027 *
 * Al             19     -0.00550     -0.00877      0.00517 *
 * Al             20     -0.00072     -0.00213      0.00111 *
 * Al             21     -0.00067     -0.00243      0.00122 *
 * Al             22     -0.00007     -0.00296      0.00004 *
 * Al             23     -0.00795     -0.00310      0.00468 *
 * Al             24     -0.00559     -0.00200     -0.00062 *
 * Ti              1      0.08206      0.05186     -0.06340 *
 * Ti              2     -0.00580     -0.00117      0.00112 *
 * Ti              3     -0.00354     -0.00473      0.00111 *
 * Ti              4     -0.00096     -0.00060      0.00123 *
 * Ti              5     -0.00594     -0.00375      0.00431 *
 * Ti              6     -0.00316      0.00068     -0.00069 *
 * Ti              7     -0.00078     -0.00316     -0.00070 *
 * Ti              8     -0.00355     -0.00226     -0.00014 *
 *                                                          *
 ************************************************************

 ***************** Stress Tensor *****************
 *                                               *
 *          Cartesian components (GPa)           *
 * --------------------------------------------- *
 *             x             y             z     *
 *                                               *
 *  x     -0.586569     -0.013808      0.126223  *
 *  y     -0.013808     -0.573438      0.079788  *
 *  z      0.126223      0.079788     -0.516002  *
 *                                               *
 *  Pressure:    0.5587                          *
 *                                               *
 *************************************************

 Pseudo atomic calculation performed for Al 3s2 3p1

 Converged in 15 iterations to a total energy of -105.5952 eV


 Pseudo atomic calculation performed for Ti 3s2 3p6 3d2 4s2

 Converged in 31 iterations to a total energy of -1585.9998 eV

Charge spilling parameter for spin component 1 = 0.51%

     Atomic Populations (Mulliken)
     -----------------------------
Species          Ion     s      p      d      f     Total  Charge (e)
=====================================================================
  Al              1     1.02   1.87   0.00   0.00   2.89     0.11
  Al              2     1.02   1.87   0.00   0.00   2.89     0.11
  Al              3     1.02   1.87   0.00   0.00   2.89     0.11
  Al              4     1.02   1.87   0.00   0.00   2.89     0.11
  Al              5     1.02   1.87   0.00   0.00   2.89     0.11
  Al              6     1.02   1.87   0.00   0.00   2.89     0.11
  Al              7     1.02   1.87   0.00   0.00   2.89     0.11
  Al              8     1.02   1.87   0.00   0.00   2.89     0.11
  Al              9     0.99   2.09   0.00   0.00   3.08    -0.08
  Al             10     0.99   2.09   0.00   0.00   3.08    -0.08
  Al             11     0.99   2.09   0.00   0.00   3.08    -0.08
  Al             12     0.99   2.09   0.00   0.00   3.08    -0.08
  Al             13     0.99   2.09   0.00   0.00   3.08    -0.08
  Al             14     0.99   2.09   0.00   0.00   3.08    -0.08
  Al             15     0.99   2.09   0.00   0.00   3.08    -0.08
  Al             16     0.99   2.09   0.00   0.00   3.08    -0.08
  Al             17     0.99   2.09   0.00   0.00   3.08    -0.08
  Al             18     0.99   2.09   0.00   0.00   3.08    -0.08
  Al             19     0.99   2.09   0.00   0.00   3.08    -0.08
  Al             20     0.99   2.09   0.00   0.00   3.08    -0.08
  Al             21     0.99   2.09   0.00   0.00   3.08    -0.08
  Al             22     0.99   2.09   0.00   0.00   3.08    -0.08
  Al             23     0.99   2.09   0.00   0.00   3.08    -0.08
  Al             24     0.99   2.09   0.00   0.00   3.08    -0.08
  Ti              1     2.19   6.70   3.06   0.00  11.95     0.05
  Ti              2     2.19   6.70   3.06   0.00  11.95     0.05
  Ti              3     2.19   6.70   3.06   0.00  11.95     0.05
  Ti              4     2.19   6.70   3.06   0.00  11.95     0.05
  Ti              5     2.19   6.70   3.06   0.00  11.95     0.05
  Ti              6     2.19   6.70   3.06   0.00  11.95     0.05
  Ti              7     2.19   6.70   3.06   0.00  11.95     0.05
  Ti              8     2.19   6.70   3.06   0.00  11.95     0.05
[...]
 * Al             19     -0.00019     -0.00158     -0.00012 *
 * Al             20      0.00065     -0.00116     -0.00099 *
 * Al             21      0.00024     -0.00151      0.00027 *
 * Al             22      0.00139     -0.00156      0.01392 *
 * Al             23      0.00044     -0.00034      0.01374 *
 * Al             24      0.00076     -0.00123      0.00030 *
 * Ti              1     -0.00601     -0.00097     -0.00044 *
 * Ti              2     -0.00891     -0.00239      0.00453 *
 * Ti              3     -0.00060     -0.00143      0.00020 *
 * Ti              4     -0.00182     -0.00088      0.00089 *
 * Ti              5     -0.00157     -0.00126      0.00085 *
 * Ti              6     -0.00621     -0.00745      0.00480 *
 * Ti              7     -0.00154      0.00008      0.00022 *
 * Ti              8     -0.00345     -0.00488     -0.00037 *
 *                                                          *
 ************************************************************

 ******************** Constrained Forces ********************
 *                                                          *
 *               Cartesian components (eV/A)                *
 * -------------------------------------------------------- *
 *                         x            y            z      *
 *                                                          *
 * Al              1     -0.00431     -0.00889      0.00531 *
 * Al              2      0.00029      0.00040      0.00065 *
 * Al              3     -0.00065     -0.00373     -0.00272 *
 * Al              4      0.00029      0.00101     -0.00035 *
 * Al              5     -0.01025     -0.00007      0.00548 *
 * Al              6     -0.00368      0.00108     -0.00272 *
 * Al              7      0.00054     -0.00001      0.00067 *
 * Al              8      0.00102     -0.00018     -0.00032 *
 * Al              9      0.04955      0.03305     -0.04341 *
 * Al             10     -0.00087      0.00094     -0.00030 *
 * Al             11     -0.00096      0.00095     -0.00029 *
 * Al             12     -0.00164      0.00060      0.00027 *
 * Al             13     -0.00121      0.00090      0.00010 *
 * Al             14     -0.00027      0.00022      0.00115 *
 * Al             15     -0.00119      0.00194      0.00109 *
 * Al             16     -0.00085      0.00119     -0.00007 *
 * Al             17      0.00119     -0.00106     -0.00229 *
 * Al             18     -0.00019     -0.00177     -0.00004 *
 * Al             19     -0.00019     -0.00158     -0.00012 *
 * Al             20      0.00065     -0.00116     -0.00099 *
 * Al             21      0.00024     -0.00151      0.00027 *
 * Al             22      0.00139     -0.00156      0.01392 *
 * Al             23      0.00044     -0.00034      0.01374 *
 * Al             24      0.00076     -0.00123      0.00030 *
 * Ti              1     -0.00601     -0.00097     -0.00044 *
 * Ti              2     -0.00891     -0.00239      0.00453 *
 * Ti              3     -0.00060     -0.00143      0.00020 *
 * Ti              4     -0.00182     -0.00088      0.00089 *
 * Ti              5     -0.00157     -0.00126      0.00085 *
 * Ti              6     -0.00621     -0.00745      0.00480 *
 * Ti              7     -0.00154      0.00008      0.00022 *
 * Ti              8     -0.00345     -0.00488     -0.00037 *
 *                                                          *
 ************************************************************

 ***************** Stress Tensor *****************
 *                                               *
 *          Cartesian components (GPa)           *
 * --------------------------------------------- *
 *             x             y             z     *
 *                                               *
 *  x     -0.578141     -0.011243      0.127297  *
 *  y     -0.011243     -0.560720      0.077919  *
 *  z      0.127297      0.077919     -0.506799  *
 *                                               *
 *  Pressure:    0.5486                          *
 *                                               *
 *************************************************

 Pseudo atomic calculation performed for Al 3s2 3p1

 Converged in 15 iterations to a total energy of -105.5952 eV


 Pseudo atomic calculation performed for Ti 3s2 3p6 3d2 4s2

 Converged in 31 iterations to a total energy of -1585.9998 eV

Charge spilling parameter for spin component 1 = 0.51%

     Atomic Populations (Mulliken)
     -----------------------------
Species          Ion     s      p      d      f     Total  Charge (e)
=====================================================================
  Al              1     1.02   1.87   0.00   0.00   2.89     0.11
  Al              2     1.02   1.87   0.00   0.00   2.89     0.11
  Al              3     1.02   1.87   0.00   0.00   2.89     0.11
  Al              4     1.02   1.87   0.00   0.00   2.89     0.11
  Al              5     1.02   1.87   0.00   0.00   2.89     0.11
  Al              6     1.02   1.87   0.00   0.00   2.89     0.11
  Al              7     1.02   1.87   0.00   0.00   2.89     0.11
  Al              8     1.02   1.87   0.00   0.00   2.89     0.11
  Al              9     0.99   2.09   0.00   0.00   3.08    -0.08
  Al             10     0.99   2.09   0.00   0.00   3.08    -0.08
  Al             11     0.99   2.09   0.00   0.00   3.08    -0.08
  Al             12     0.99   2.09   0.00   0.00   3.08    -0.08
  Al             13     0.99   2.09   0.00   0.00   3.08    -0.08
  Al             14     0.99   2.09   0.00   0.00   3.08    -0.08
  Al             15     0.99   2.09   0.00   0.00   3.08    -0.08
  Al             16     0.99   2.09   0.00   0.00   3.08    -0.08
  Al             17     0.99   2.09   0.00   0.00   3.08    -0.08
  Al             18     0.99   2.09   0.00   0.00   3.08    -0.08
  Al             19     0.99   2.09   0.00   0.00   3.08    -0.08
  Al             20     0.99   2.09   0.00   0.00   3.08    -0.08
  Al             21     0.99   2.09   0.00   0.00   3.08    -0.08
  Al             22     0.99   2.09   0.00   0.00   3.08    -0.08
  Al             23     0.99   2.09   0.00   0.00   3.08    -0.08
  Al             24     0.99   2.09   0.00   0.00   3.08    -0.08
  Ti              1     2.19   6.70   3.06   0.00  11.95     0.05
  Ti              2     2.19   6.70   3.06   0.00  11.95     0.05
  Ti              3     2.19   6.70   3.06   0.00  11.95     0.05
  Ti              4     2.19   6.70   3.06   0.00  11.95     0.05
  Ti              5     2.19   6.70   3.06   0.00  11.95     0.05
  Ti              6     2.19   6.70   3.06   0.00  11.95     0.05
  Ti              7     2.19   6.70   3.06   0.00  11.95     0.05
  Ti              8     2.19   6.70   3.06   0.00  11.95     0.05
=====================================================================

                 Bond                   Population      Length (A)
======================================================================
             Al 9  -- Al 22                  0.40        2.66260
             Al 1  -- Ti 8                   0.29        2.66791
             Al 6  -- Ti 2                   0.29        2.66791
             Al 4  -- Ti 5                   0.29        2.66791
             Al 7  -- Ti 3                   0.29        2.66791
             Al 5  -- Ti 1                   0.29        2.66791
             Al 2  -- Ti 7                   0.29        2.66791
             Al 3  -- Ti 7                   0.29        2.66791
             Al 5  -- Ti 4                   0.29        2.66791
             Al 16 -- Al 19                  0.40        2.66791
             Al 15 -- Al 20                  0.40        2.66791
             Al 10 -- Al 21                  0.40        2.66791
             Al 14 -- Al 17                  0.40        2.66791
             Al 11 -- Al 24                  0.40        2.66791
             Al 16 -- Al 18                  0.40        2.66791
             Al 12 -- Al 22                  0.40        2.66791
             Al 8  -- Ti 1                   0.29        2.66791
             Al 7  -- Ti 2                   0.29        2.66791
             Al 3  -- Ti 6                   0.29        2.66791
             Al 2  -- Ti 6                   0.29        2.66791
             Al 8  -- Ti 4                   0.29        2.66791
             Al 1  -- Ti 5                   0.29        2.66791
             Al 6  -- Ti 3                   0.29        2.66791
             Al 4  -- Ti 8                   0.29        2.66791
             Al 10 -- Al 24                  0.40        2.66791
             Al 13 -- Al 18                  0.40        2.66791
             Al 12 -- Al 23                  0.40        2.66791
             Al 14 -- Al 20                  0.40        2.66791
             Al 11 -- Al 21                  0.40        2.66791
             Al 15 -- Al 17                  0.40        2.66791
             Al 13 -- Al 19                  0.40        2.66791
             Al 11 -- Al 18                  0.39        2.66920
             Al 16 -- Al 21                  0.39        2.66920
             Al 13 -- Al 24                  0.39        2.66920
             Al 14 -- Al 23                  0.39        2.66920
             Al 12 -- Al 17                  0.39        2.66920
             Al 15 -- Al 22                  0.39        2.66920
             Al 10 -- Al 19                  0.39        2.66920
             Al 9  -- Al 20                  0.39        2.66922
             Al 1  -- Ti 2                   0.29        2.66933
             Al 3  -- Ti 4                   0.29        2.66933
             Al 6  -- Ti 5                   0.29        2.66933
             Al 8  -- Ti 6                   0.29        2.66933
             Al 8  -- Ti 7                   0.29        2.66933
             Al 7  -- Ti 8                   0.29        2.66933
             Al 2  -- Ti 4                   0.29        2.66933
             Al 7  -- Ti 5                   0.29        2.66933
             Al 6  -- Ti 8                   0.29        2.66933
             Al 1  -- Ti 3                   0.29        2.66933
             Al 5  -- Ti 7                   0.29        2.66933
             Al 4  -- Ti 3                   0.29        2.66933
             Al 2  -- Ti 1                   0.29        2.66933
             Al 5  -- Ti 6                   0.29        2.66933
             Al 4  -- Ti 2                   0.29        2.66933
             Al 3  -- Ti 1                   0.29        2.66933
             Al 16 -- Al 24                  0.39        2.66946
             Al 15 -- Al 23                  0.39        2.66946
             Al 14 -- Al 22                  0.39        2.66946
             Al 10 -- Al 18                  0.39        2.66946
             Al 12 -- Al 20                  0.39        2.66946
             Al 11 -- Al 19                  0.39        2.66946
             Al 13 -- Al 21                  0.39        2.66946
             Al 9  -- Al 17                  0.39        2.66948
             Al 9  -- Al 23                  0.39        2.67326
             Al 9  -- Ti 6                   0.16        2.82555
             Al 5  -- Al 9                   0.11        2.82561
             Al 3  -- Al 9                   0.11        2.83163
             Al 9  -- Ti 1                   0.16        2.83169
             Al 22 -- Ti 4                   0.16        2.83437
             Al 13 -- Ti 6                   0.16        2.83437
             Al 16 -- Ti 7                   0.16        2.83437
             Al 19 -- Ti 1                   0.16        2.83437
             Al 21 -- Ti 7                   0.16        2.83437
             Al 10 -- Ti 5                   0.16        2.83437
             Al 24 -- Ti 6                   0.16        2.83437
             Al 15 -- Ti 4                   0.16        2.83437
             Al 13 -- Ti 2                   0.16        2.83437
             Al 19 -- Ti 5                   0.16        2.83437
             Al 15 -- Ti 8                   0.16        2.83437
             Al 21 -- Ti 3                   0.16        2.83437
             Al 20 -- Ti 6                   0.16        2.83437
             Al 17 -- Ti 3                   0.16        2.83437
             Al 11 -- Ti 8                   0.16        2.83437
             Al 20 -- Ti 2                   0.16        2.83437
             Al 14 -- Ti 1                   0.16        2.83437
             Al 16 -- Ti 3                   0.16        2.83437
             Al 23 -- Ti 5                   0.16        2.83437
             Al 22 -- Ti 8                   0.16        2.83437
             Al 10 -- Ti 1                   0.16        2.83437
             Al 12 -- Ti 3                   0.16        2.83437
             Al 18 -- Ti 8                   0.16        2.83437
             Al 18 -- Ti 4                   0.16        2.83437
             Al 12 -- Ti 7                   0.16        2.83437
             Al 24 -- Ti 2                   0.16        2.83437
             Al 17 -- Ti 7                   0.16        2.83437
             Al 23 -- Ti 1                   0.16        2.83437
             Al 11 -- Ti 4                   0.16        2.83437
             Al 14 -- Ti 5                   0.16        2.83437
             Al 4  -- Al 12                  0.11        2.83443
             Al 2  -- Al 10                  0.11        2.83443
             Al 7  -- Al 19                  0.11        2.83443
             Al 8  -- Al 20                  0.11        2.83443
             Al 2  -- Al 18                  0.11        2.83443
             Al 7  -- Al 11                  0.11        2.83443
             Al 5  -- Al 21                  0.11        2.83443
             Al 8  -- Al 24                  0.11        2.83443
             Al 6  -- Al 10                  0.11        2.83443
             Al 3  -- Al 15                  0.11        2.83443
             Al 5  -- Al 13                  0.11        2.83443
             Al 2  -- Al 22                  0.11        2.83443
             Al 3  -- Al 11                  0.11        2.83443
             Al 5  -- Al 17                  0.11        2.83443
             Al 4  -- Al 24                  0.11        2.83443
             Al 7  -- Al 15                  0.11        2.83443
             Al 6  -- Al 14                  0.11        2.83443
             Al 2  -- Al 14                  0.11        2.83443
             Al 4  -- Al 16                  0.11        2.83443
             Al 8  -- Al 12                  0.11        2.83443
             Al 7  -- Al 23                  0.11        2.83443
             Al 1  -- Al 13                  0.11        2.83443
             Al 6  -- Al 22                  0.11        2.83443
             Al 6  -- Al 18                  0.11        2.83443
             Al 8  -- Al 16                  0.11        2.83443
             Al 3  -- Al 23                  0.11        2.83443
             Al 1  -- Al 21                  0.11        2.83443
             Al 3  -- Al 19                  0.11        2.83443
             Al 4  -- Al 20                  0.11        2.83443
             Al 1  -- Al 17                  0.11        2.83443
             Al 4  -- Al 19                  0.11        2.83542
             Al 8  -- Al 14                  0.11        2.83542
             Al 3  -- Al 20                  0.11        2.83542
             Al 1  -- Al 18                  0.11        2.83542
             Al 7  -- Al 13                  0.11        2.83542
             Al 6  -- Al 20                  0.11        2.83542
             Al 3  -- Al 21                  0.11        2.83542
             Al 1  -- Al 23                  0.11        2.83542
             Al 2  -- Al 12                  0.11        2.83542
             Al 2  -- Al 17                  0.11        2.83542
             Al 1  -- Al 11                  0.11        2.83542
             Al 4  -- Al 10                  0.11        2.83542
             Al 2  -- Al 13                  0.11        2.83542
             Al 6  -- Al 16                  0.11        2.83542
             Al 8  -- Al 18                  0.11        2.83542
             Al 5  -- Al 15                  0.11        2.83542
             Al 4  -- Al 22                  0.11        2.83542
             Al 7  -- Al 17                  0.11        2.83542
             Al 8  -- Al 23                  0.11        2.83542
             Al 5  -- Al 22                  0.11        2.83542
             Al 5  -- Al 10                  0.11        2.83542
             Al 3  -- Al 16                  0.11        2.83542
             Al 7  -- Al 12                  0.11        2.83542
             Al 7  -- Al 24                  0.11        2.83542
             Al 4  -- Al 15                  0.11        2.83542
             Al 6  -- Al 21                  0.11        2.83542
             Al 8  -- Al 11                  0.11        2.83542
             Al 2  -- Al 24                  0.11        2.83542
             Al 5  -- Al 19                  0.11        2.83542
             Al 1  -- Al 14                  0.11        2.83542
             Al 19 -- Ti 3                   0.16        2.83548
             Al 17 -- Ti 1                   0.16        2.83548
             Al 20 -- Ti 4                   0.16        2.83548
             Al 21 -- Ti 5                   0.16        2.83548
             Al 18 -- Ti 2                   0.16        2.83548
             Al 22 -- Ti 6                   0.16        2.83548
             Al 10 -- Ti 7                   0.16        2.83548
             Al 11 -- Ti 6                   0.16        2.83548
             Al 12 -- Ti 5                   0.16        2.83548
             Al 15 -- Ti 2                   0.16        2.83548
             Al 14 -- Ti 6                   0.16        2.83548
             Al 23 -- Ti 2                   0.16        2.83548
             Al 12 -- Ti 4                   0.16        2.83548
             Al 11 -- Ti 3                   0.16        2.83548
             Al 10 -- Ti 2                   0.16        2.83548
             Al 18 -- Ti 7                   0.16        2.83548
             Al 17 -- Ti 8                   0.16        2.83548
             Al 24 -- Ti 8                   0.16        2.83548
             Al 14 -- Ti 3                   0.16        2.83548
             Al 23 -- Ti 7                   0.16        2.83548
             Al 16 -- Ti 1                   0.16        2.83548
             Al 24 -- Ti 1                   0.16        2.83548
             Al 13 -- Ti 4                   0.16        2.83548
             Al 13 -- Ti 5                   0.16        2.83548
             Al 15 -- Ti 7                   0.16        2.83548
             Al 16 -- Ti 8                   0.16        2.83548
             Al 22 -- Ti 3                   0.16        2.83548
             Al 20 -- Ti 5                   0.16        2.83548
             Al 21 -- Ti 4                   0.16        2.83548
             Al 19 -- Ti 6                   0.16        2.83548
             Al 6  -- Al 9                   0.11        2.83924
             Al 9  -- Ti 8                   0.16        2.83930
             Al 9  -- Ti 2                   0.16        2.84320
             Al 1  -- Al 9                   0.11        2.84326
======================================================================

 
 A BibTeX formatted list of references used in this run has been written to 
 castep.bib
 
Initialisation time =     14.31 s
Calculation time    =   1496.28 s
Finalisation time   =      0.20 s
Total time          =   1510.80 s
Peak Memory Use     = 2239272 kB
  
Overall parallel efficiency rating: Excellent (98%)                             
  
Data was distributed by:-
k-point (40-way); efficiency rating: Excellent (98%)                            
