2
Lattice="3.1043866465442718 2.1375539626242467e-16 2.428979591897942e-16 2.1375539626242472e-16 3.1043866465442718 2.3729772127136235e-16 3.496010842915007e-16 3.4154070677698925e-16 3.1040549230886163" Properties=species:S:1:pos:R:3:tags:I:1 spacegroup="P 1" stress="0.0021731148897700574 5.901558081731413e-17 -5.785735505687575e-17 5.901558081731413e-17 0.002173114889770028 -1.2467739091939814e-16 -5.785735505687575e-17 -1.2467739091939814e-16 0.0021199344128677265" unit_cell=conventional pbc="T T T" n_minim_iter=15
Ti       1.55219332       1.55219332       1.55202746        0 
Al      -0.00000000       0.00000000       0.00000000        1 
