2
Lattice="2.9581847507254047 -1.8567332120004902e-17 6.754813228615596e-18 -1.85673321200049e-17 2.9581847507254033 -1.4534274854536683e-17 9.72214849720239e-18 -2.091906521357967e-17 3.6114020479868576" Properties=species:S:1:pos:R:3:tags:I:1 spacegroup="P 1" stress="-0.009143502385074723 -1.1266693122394878e-19 2.6629626415914308e-20 -1.1266693122394878e-19 -0.009143502385074984 -1.454620493379305e-18 2.6629626415914308e-20 -1.454620493379305e-18 0.0013917517131239532" unit_cell=conventional pbc="T T T" n_minim_iter=5
Ti       1.47909238       1.47909238       1.80570102        0 
Al       0.00000000       0.00000000       0.00000001        1 
