 +-------------------------------------------------+
 |                                                 |
 |      CCC   AA    SSS  TTTTT  EEEEE  PPPP        |
 |     C     A  A  S       T    E      P   P       |
 |     C     AAAA   SS     T    EEE    PPPP        |
 |     C     A  A     S    T    E      P           |
 |      CCC  A  A  SSS     T    EEEEE  P           |
 |                                                 |
 +-------------------------------------------------+
 |                                                 |
 | Welcome to Academic Release CASTEP version 17.21|          
 | Ab Initio Total Energy Program                  |
 |                                                 |
 | Authors:                                        |
 | M. Segall, M. Probert, C. Pickard, P. Hasnip,   |
 | S. Clark, K. Refson, J. R. Yates, M. Payne      |
 |                                                 |
 | Contributors:                                   |
 | P. Lindan, P. Haynes, J. White, V. Milman,      |
 | N. Govind, M. Gibson, P. Tulip, V. Cocula,      |
 | B. Montanari, D. Quigley, M. Glover,            |
 | L. Bernasconi, A. Perlov, M. Plummer,           |
 | E. McNellis, J. Meyer, J. Gale, D. Jochym       |
 | J. Aarons, B. Walker, R. Gillen, D. Jones       |
 | T. Green, I. J. Bush, C. J. Armstrong,          |
 | E. J. Higgins, E. L. Brown, M. S. McFly,        |
 | J. Wilkins, B-C. Shih, P. J. P. Byrne           |
 |                                                 |
 | Copyright (c) 2000 - 2017                       |
 |                                                 |
 |     Distributed under the terms of an           |
 |     Agreement between the United Kingdom        |
 |     Car-Parrinello (UKCP) Consortium,           |
 |     Daresbury Laboratory and Accelrys, Inc.     |
 |                                                 |
 | Please cite                                     |
 |                                                 |
 |     "First principles methods using CASTEP"     |
 |                                                 |
 |         Zeitschrift fuer Kristallographie       |
 |           220(5-6) pp. 567-570 (2005)           |
 |                                                 |
 | S. J. Clark, M. D. Segall, C. J. Pickard,       |
 | P. J. Hasnip, M. J. Probert, K. Refson,         |
 | M. C. Payne                                     |
 |                                                 |
 |       in all publications arising from          |
 |              your use of CASTEP                 |
 |                                                 |
 +-------------------------------------------------+


 Compiled for linux_x86_64_gfortran6.0-XT on Fri, 21 Jul 2017 10:20:05 +0100
 from code version 056e886bd5a1+ Castep172_branch Mon, 15 May 2017 14:45:35 +0100
 Compiler: GNU Fortran 6.3.0; Optimisation: fast
 MATHLIBS: Intel MKL(2017.0.0) (LAPACK version 3.6.0)
 FFT Lib : fftw3 version commercial-fftw-3.3.4-sse2-avx
 Fundamental constants values: CODATA 2010

 Run started: Fri, 20 Sep 2019 15:49:39 +0100

 Atomic calculation performed for Al: 1s2 2s2 2p6 3s2 3p1

 Converged in 55 iterations to an ae energy of -6578.725 eV

   ============================================================                
   | Pseudopotential Report - Date of generation 20-09-2019   |                
   ------------------------------------------------------------                
   | Element: Al Ionic charge:  3.00 Level of theory: LDA     |                
   | Atomic Solver: Koelling-Harmon                           |                
   |                                                          |                
   |               Reference Electronic Structure             |                
   |         Orbital         Occupation         Energy        |                
   |            3s              2.000           -0.288        |                
   |            3p              1.000           -0.102        |                
   |                                                          |                
   |                 Pseudopotential Definition               |                
   |        Beta     l      e      Rc     scheme   norm       |                
   |          1      0   -0.288   2.192     qc      0         |                
   |          2      0    0.250   2.192     qc      0         |                
   |          3      1   -0.102   2.192     qc      0         |                
   |          4      1    0.250   2.192     qc      0         |                
   |          5      2    0.000   2.000     qc      0         |                
   |          6      2    0.250   2.000     qc      0         |                
   |         loc     3    0.000   2.192     pn      0         |                
   |                                                          |                
   | Augmentation charge Rinner = 1.398                       |                
   | Partial core correction Rc = 1.398                       |                
   ------------------------------------------------------------                
   | "3|2.2|2.2|1.4|4|5|5|30:31:32U2U2"                       |                
   ------------------------------------------------------------                
   |      Author: Chris J. Pickard, Cambridge University      |                
   ============================================================                

 Atomic calculation performed for Ti: 1s2 2s2 2p6 3s2 3p6 3d2 4s2

 Converged in 78 iterations to an ae energy of -23176.516 eV

   ============================================================                
   | Pseudopotential Report - Date of generation 20-09-2019   |                
   ------------------------------------------------------------                
   | Element: Ti Ionic charge: 12.00 Level of theory: LDA     |                
   | Atomic Solver: Koelling-Harmon                           |                
   |                                                          |                
   |               Reference Electronic Structure             |                
   |         Orbital         Occupation         Energy        |                
   |            3s              2.000           -2.288        |                
   |            3p              6.000           -1.425        |                
   |            4s              2.000           -0.169        |                
   |            3d              2.000           -0.164        |                
   |                                                          |                
   |                 Pseudopotential Definition               |                
   |        Beta     l      e      Rc     scheme   norm       |                
   |          1      0   -2.288   1.793     qc      0         |                
   |          2      0   -0.169   1.793     qc      0         |                
   |          3      0    0.250   1.793     qc      0         |                
   |          4      1   -1.425   1.793     qc      0         |                
   |          5      1    0.250   1.793     qc      0         |                
   |          6      2   -0.164   1.793     qc      0         |                
   |          7      2    0.250   1.793     qc      0         |                
   |         loc     3    0.000   1.793     pn      0         |                
   |                                                          |                
   | Augmentation charge Rinner = 1.263                       |                
   | Partial core correction Rc = 1.263                       |                
   ------------------------------------------------------------                
   | "3|1.8|9|10|11|30U:40:31:32(qc=5.5)"                     |                
   ------------------------------------------------------------                
   |      Author: Chris J. Pickard, Cambridge University      |                
   ============================================================                

 Pseudo atomic calculation performed for Al 3s2 3p1

 Converged in 15 iterations to a total energy of -105.5952 eV


 Pseudo atomic calculation performed for Ti 3s2 3p6 3d2 4s2

 Converged in 31 iterations to a total energy of -1585.9998 eV

 Calculation parallelised over 48 processes.
 Data is distributed by k-point(48-way)

 ************************************ Title ************************************
 

 ***************************** General Parameters ******************************
  
 output verbosity                               : normal  (1)
 write checkpoint data to                       : castep.check
 type of calculation                            : single point energy
 stress calculation                             : on
 density difference calculation                 : off
 electron localisation func (ELF) calculation   : off
 Hirshfeld analysis                             : off
 unlimited duration calculation
 timing information                             : on
 memory usage estimate                          : on
 write final potential to formatted file        : off
 write final density to formatted file          : off
 write BibTeX reference list                    : on
 write OTFG pseudopotential files               : on
 write electrostatic potential file             : on
 write bands file                               : on
 checkpoint writing                             : off
  
 output         length unit                     : A
 output           mass unit                     : amu
 output           time unit                     : ps
 output         charge unit                     : e
 output           spin unit                     : hbar/2
 output         energy unit                     : eV
 output          force unit                     : eV/A
 output       velocity unit                     : A/ps
 output       pressure unit                     : GPa
 output     inv_length unit                     : 1/A
 output      frequency unit                     : cm-1
 output force constant unit                     : eV/A**2
 output         volume unit                     : A**3
 output   IR intensity unit                     : (D/A)**2/amu
 output         dipole unit                     : D
 output         efield unit                     : eV/A/e
 output        entropy unit                     : J/mol/K
  
 wavefunctions paging                           : none
 random number generator seed                   : randomised (154940014)
 data distribution                              : optimal for this architecture
 optimization strategy                          : balance speed and memory

 *********************** Exchange-Correlation Parameters ***********************
  
 using functional                               : Local Density Approximation
 relativistic treatment                         : Koelling-Harmon
 DFT+D: Semi-empirical dispersion correction    : off

 ************************* Pseudopotential Parameters **************************
  
 pseudopotential representation                 : reciprocal space
 <beta|phi> representation                      : reciprocal space
 spin-orbit coupling                            : off

 **************************** Basis Set Parameters *****************************
  
 plane wave basis set cut-off                   :   600.0000   eV
 size of standard grid                          :     1.7500
 size of   fine   gmax                          :    21.9610   1/A
 finite basis set correction                    : automatic
 number of sample energies                      :          3
           sample  spacing                      :     5.0000   eV

 **************************** Electronic Parameters ****************************
  
 number of  electrons                           :  21.00    
 net charge of system                           :  0.000    
 net spin   of system                           :  1.000    
 number of  up  spins                           :  11.00    
 number of down spins                           :  10.00    
 treating system as spin-polarized
 number of bands                                :         15

 ********************* Electronic Minimization Parameters **********************
  
 Method: Treating system as metallic with density mixing treatment of electrons,
         and number of  SD  steps               :          1
         and number of  CG  steps               :          4
  
 total energy / atom convergence tol.           : 0.1000E-04   eV
 eigen-energy convergence tolerance             : 0.1000E-05   eV
 max force / atom convergence tol.              : ignored
 convergence tolerance window                   :          3   cycles
 max. number of SCF cycles                      :        250
 number of fixed-spin iterations                :         10
 smearing scheme                                : Gaussian
 smearing width                                 : 0.1000       eV
 Fermi energy convergence tolerance             : 0.2721E-13   eV
 periodic dipole correction                     : NONE

 ************************** Density Mixing Parameters **************************
  
 density-mixing scheme                          : Pulay
 max. length of mixing history                  :         20
 charge density mixing amplitude                : 0.8000    
   spin density mixing amplitude                :  2.000    
 cut-off energy for mixing                      :  600.0       eV

 *********************** Population Analysis Parameters ************************
  
 Population analysis with cutoff                :  3.000       A

 *******************************************************************************
  

                           -------------------------------
                                      Unit Cell
                           -------------------------------
        Real Lattice(A)                      Reciprocal Lattice(1/A)
   5.0878870   0.0000000   0.0000000        1.2349302  -0.5868313   1.1558071
   2.1837200   4.5954290   0.0000000        0.0000000   1.3672685   1.1558065
  -3.6358040  -2.2977140   2.7180950        0.0000000   0.0000000   2.3116136

                       Lattice parameters(A)       Cell Angles
                    a =    5.087887          alpha =  135.610410
                    b =    5.087888          beta  =  135.610419
                    c =    5.087888          gamma =   64.583216

                       Current cell volume =   63.551843       A**3
                                   density =    2.026875   AMU/A**3
                                           =    3.365704     g/cm^3

                           -------------------------------
                                     Cell Contents
                           -------------------------------
                         Total number of ions in cell =    4
                      Total number of species in cell =    2
                        Max number of any one species =    3

            xxxxxxxxxxxxxxxxxxxxxxxxxxxxxxxxxxxxxxxxxxxxxxxxxxxxxxxxxxxx
            x  Element    Atom        Fractional coordinates of atoms  x
            x            Number           u          v          w      x
            x----------------------------------------------------------x
            x  Al           1         0.500000   0.500000   0.000000   x 
            x  Al           2         0.750000   0.250000   0.500000   x 
            x  Al           3         0.250000   0.750000   0.500000   x 
            x  Ti           1         0.000000   0.000000   0.000000   x 
            xxxxxxxxxxxxxxxxxxxxxxxxxxxxxxxxxxxxxxxxxxxxxxxxxxxxxxxxxxxx


                         No user defined ionic velocities

                           -------------------------------
                                   Details of Species
                           -------------------------------

                               Mass of species in AMU
                                    Al   26.9815400
                                    Ti   47.8670000

                          Electric Quadrupole Moment (Barn)
                                    Al    0.1466000 Isotope 27
                                    Ti    0.3020000 Isotope 47

                          Files used for pseudopotentials:
                                    Al 3|2.2|2.2|1.4|4|5|5|30:31:32U2U2
                                    Ti 3|1.8|9|10|11|30U:40:31:32(qc=5.5)

                           -------------------------------
                              k-Points For BZ Sampling
                           -------------------------------
                       MP grid size for SCF calculation is  8  8 10
                            with an offset of   0.000  0.000  0.000
                       Number of kpoints used =           320

                           -------------------------------
                               Symmetry and Constraints
                           -------------------------------

                      Maximum deviation from symmetry =  0.00000         ANG

                      Number of symmetry operations   =           1
                      Number of ionic constraints     =           3
                      Point group of crystal =     1: C1, 1, 1
                      Space group of crystal =   139: I4/mmm, -I 4 2

             Set iprint > 1 for details on symmetry rotations/translations

                         Centre of mass is constrained
             Set iprint > 1 for details of linear ionic constraints

                         Number of cell constraints= 0
                         Cell constraints are:  1 2 3 4 5 6

                         External pressure/stress (GPa)
                          0.00000   0.00000   0.00000
                                    0.00000   0.00000
                                              0.00000
  
+---------------- MEMORY AND SCRATCH DISK ESTIMATES PER PROCESS --------------+
|                                                     Memory          Disk    |
| Baseline code, static data and system overhead      172.0 MB         0.0 MB |
| BLAS internal memory storage                          0.0 MB         0.0 MB |
| Model and support data                               56.1 MB       132.3 MB |
| Electronic energy minimisation requirements          27.5 MB         0.0 MB |
| Force calculation requirements                       10.3 MB         0.0 MB |
| Stress calculation requirements                      10.3 MB         0.0 MB |
|                                               ----------------------------- |
| Approx. total storage required per process          255.5 MB       132.3 MB |
|                                                                             |
| Requirements will fluctuate during execution and may exceed these estimates |
+-----------------------------------------------------------------------------+
Calculating finite basis set correction with  3 cut-off energies.
Calculating total energy with cut-off of  590.000 eV.
------------------------------------------------------------------------ <-- SCF
SCF loop      Energy           Fermi           Energy gain       Timer   <-- SCF
                               energy          per atom          (sec)   <-- SCF
------------------------------------------------------------------------ <-- SCF
Initial  -1.36690438E+003  0.00000000E+000                        19.87  <-- SCF
      1  -1.87248458E+003  9.06043047E+000   1.26395049E+002      22.69  <-- SCF
      2  -1.92305951E+003  6.33669281E+000   1.26437336E+001      24.90  <-- SCF
      3  -1.92463449E+003  6.23593053E+000   3.93744166E-001      27.29  <-- SCF
      4  -1.92448048E+003  6.38013940E+000  -3.85014075E-002      30.57  <-- SCF
      5  -1.92450312E+003  6.11134430E+000   5.66020840E-003      33.71  <-- SCF
      6  -1.92446253E+003  6.29962706E+000  -1.01484031E-002      36.77  <-- SCF
      7  -1.92446278E+003  6.27843557E+000   6.23332212E-005      39.92  <-- SCF
      8  -1.92446312E+003  6.27543004E+000   8.58509520E-005      42.77  <-- SCF
      9  -1.92446313E+003  6.27522864E+000   2.78053192E-006      44.97  <-- SCF
     10  -1.92458766E+003  6.14026380E+000   3.11329180E-002      47.08  <-- SCF
     11  -1.92464222E+003  5.96584751E+000   1.36394936E-002      50.11  <-- SCF
     12  -1.92464403E+003  6.09569075E+000   4.51998478E-004      53.12  <-- SCF
     13  -1.92464626E+003  6.06243591E+000   5.56909403E-004      56.05  <-- SCF
     14  -1.92464841E+003  6.06270815E+000   5.37539615E-004      58.90  <-- SCF
     15  -1.92464848E+003  6.06302583E+000   1.72470848E-005      61.41  <-- SCF
     16  -1.92464848E+003  6.06346046E+000   9.00786393E-007      63.43  <-- SCF
     17  -1.92464848E+003  6.06356914E+000   1.94372204E-007      65.45  <-- SCF
------------------------------------------------------------------------ <-- SCF
 
Integrated Spin Density     =    0.194968E-03 hbar/2                        
Integrated |Spin Density|   =    0.665950E-03 hbar/2                        
 
Final energy, E             =  -1924.639145909     eV
Final free energy (E-TS)    =  -1924.648480785     eV
(energies not corrected for finite basis set)
 
NB est. 0K energy (E-0.5TS)      =  -1924.643813347     eV
 
Calculating total energy with cut-off of  595.000 eV.
------------------------------------------------------------------------ <-- SCF
SCF loop      Energy           Fermi           Energy gain       Timer   <-- SCF
                               energy          per atom          (sec)   <-- SCF
------------------------------------------------------------------------ <-- SCF
Initial  -1.92463915E+003  0.00000000E+000                        67.07  <-- SCF
      1  -1.92464850E+003  6.06338621E+000   2.33797883E-003      68.94  <-- SCF
      2  -1.92464850E+003  6.06338621E+000   1.33377610E-008      70.95  <-- SCF
      3  -1.92464850E+003  6.06371265E+000   2.31255464E-008      72.95  <-- SCF
      4  -1.92464850E+003  6.06348862E+000  -1.75786674E-008      74.97  <-- SCF
------------------------------------------------------------------------ <-- SCF
 
Integrated Spin Density     =    0.317064E-04 hbar/2                        
Integrated |Spin Density|   =    0.131034E-03 hbar/2                        
 
Final energy, E             =  -1924.639162508     eV
Final free energy (E-TS)    =  -1924.648497932     eV
(energies not corrected for finite basis set)
 
NB est. 0K energy (E-0.5TS)      =  -1924.643830220     eV
 
Calculating total energy with cut-off of  600.000 eV.
------------------------------------------------------------------------ <-- SCF
SCF loop      Energy           Fermi           Energy gain       Timer   <-- SCF
                               energy          per atom          (sec)   <-- SCF
------------------------------------------------------------------------ <-- SCF
Initial  -1.92463916E+003  0.00000000E+000                        76.60  <-- SCF
      1  -1.92464851E+003  6.06329484E+000   2.33780034E-003      78.47  <-- SCF
      2  -1.92464851E+003  6.06329484E+000   3.39384657E-009      80.50  <-- SCF
      3  -1.92464851E+003  6.06384823E+000   3.48550344E-008      82.53  <-- SCF
      4  -1.92464851E+003  6.06348319E+000  -5.09599027E-008      84.56  <-- SCF
------------------------------------------------------------------------ <-- SCF
 
Integrated Spin Density     =    0.114822E-04 hbar/2                        
Integrated |Spin Density|   =    0.398910E-04 hbar/2                        
 
Final energy, E             =  -1924.639178190     eV
Final free energy (E-TS)    =  -1924.648513651     eV
(energies not corrected for finite basis set)
 
NB est. 0K energy (E-0.5TS)      =  -1924.643845921     eV
 
 For future reference: finite basis dEtot/dlog(Ecut) =      -0.001935eV
 Total energy corrected for finite basis set =   -1924.648514 eV

 ******************* Unconstrained Forces *******************
 *                                                          *
 *               Cartesian components (eV/A)                *
 * -------------------------------------------------------- *
 *                         x            y            z      *
 *                                                          *
 * Al              1     -0.00000      0.00000     -0.00000 *
 * Al              2      0.00057     -0.00091      0.00000 *
 * Al              3     -0.00058      0.00091      0.00000 *
 * Ti              1      0.00000     -0.00000     -0.00000 *
 *                                                          *
 ************************************************************

 ******************** Constrained Forces ********************
 *                                                          *
 *               Cartesian components (eV/A)                *
 * -------------------------------------------------------- *
 *                         x            y            z      *
 *                                                          *
 * Al              1     -0.00000      0.00000     -0.00000 *
 * Al              2      0.00057     -0.00091      0.00000 *
 * Al              3     -0.00058      0.00091      0.00000 *
 * Ti              1      0.00000     -0.00000     -0.00000 *
 *                                                          *
 ************************************************************

 ***************** Stress Tensor *****************
 *                                               *
 *          Cartesian components (GPa)           *
 * --------------------------------------------- *
 *             x             y             z     *
 *                                               *
 *  x      4.872875     -0.231459     -0.064291  *
 *  y     -0.231459      5.092879     -0.040613  *
 *  z     -0.064291     -0.040613      5.393029  *
 *                                               *
 *  Pressure:   -5.1196                          *
 *                                               *
 *************************************************

 Pseudo atomic calculation performed for Al 3s2 3p1

 Converged in 15 iterations to a total energy of -105.5952 eV


 Pseudo atomic calculation performed for Ti 3s2 3p6 3d2 4s2

 Converged in 31 iterations to a total energy of -1585.9998 eV

Charge spilling parameter for spin component 1 = 0.49%
Charge spilling parameter for spin component 2 = 0.49%

     Atomic Populations (Mulliken)
     -----------------------------
Species          Ion     s      p      d      f     Total  Charge (e)  Spin (hbar/2)
==================================================================================
  Al              1     1.05   1.85   0.00   0.00   2.90     0.10        0.00
  Al              2     1.01   2.06   0.00   0.00   3.07    -0.07        0.00
  Al              3     1.01   2.06   0.00   0.00   3.07    -0.07        0.00
  Ti              1     2.22   6.72   3.02   0.00  11.96     0.04       -0.00
==================================================================================

                 Bond                   Population        Spin       Length (A)
================================================================================
              Al 1 -- Ti 1                   1.40        -0.00          2.71809
              Al 2 -- Al 3                   1.59         0.00          2.71809
================================================================================

 
 A BibTeX formatted list of references used in this run has been written to 
 castep.bib
 
Initialisation time =     12.36 s
Calculation time    =     86.54 s
Finalisation time   =      0.05 s
Total time          =     98.95 s
Peak Memory Use     = 812416 kB
  
Overall parallel efficiency rating: Very good (86%)                             
  
Data was distributed by:-
k-point (48-way); efficiency rating: Very good (86%)                            
  
Parallel notes:
1) Calculation only took 98.9 s, so efficiency estimates may be inaccurate.     
 +-------------------------------------------------+
 |                                                 |
 |      CCC   AA    SSS  TTTTT  EEEEE  PPPP        |
 |     C     A  A  S       T    E      P   P       |
 |     C     AAAA   SS     T    EEE    PPPP        |
 |     C     A  A     S    T    E      P           |
 |      CCC  A  A  SSS     T    EEEEE  P           |
 |                                                 |
 +-------------------------------------------------+
 |                                                 |
 | Welcome to Academic Release CASTEP version 17.21|          
 | Ab Initio Total Energy Program                  |
 |                                                 |
 | Authors:                                        |
 | M. Segall, M. Probert, C. Pickard, P. Hasnip,   |
 | S. Clark, K. Refson, J. R. Yates, M. Payne      |
 |                                                 |
 | Contributors:                                   |
 | P. Lindan, P. Haynes, J. White, V. Milman,      |
 | N. Govind, M. Gibson, P. Tulip, V. Cocula,      |
 | B. Montanari, D. Quigley, M. Glover,            |
 | L. Bernasconi, A. Perlov, M. Plummer,           |
 | E. McNellis, J. Meyer, J. Gale, D. Jochym       |
 | J. Aarons, B. Walker, R. Gillen, D. Jones       |
 | T. Green, I. J. Bush, C. J. Armstrong,          |
 | E. J. Higgins, E. L. Brown, M. S. McFly,        |
 | J. Wilkins, B-C. Shih, P. J. P. Byrne           |
 |                                                 |
 | Copyright (c) 2000 - 2017                       |
 |                                                 |
 |     Distributed under the terms of an           |
 |     Agreement between the United Kingdom        |
 |     Car-Parrinello (UKCP) Consortium,           |
 |     Daresbury Laboratory and Accelrys, Inc.     |
 |                                                 |
 | Please cite                                     |
 |                                                 |
 |     "First principles methods using CASTEP"     |
 |                                                 |
 |         Zeitschrift fuer Kristallographie       |
 |           220(5-6) pp. 567-570 (2005)           |
 |                                                 |
 | S. J. Clark, M. D. Segall, C. J. Pickard,       |
 | P. J. Hasnip, M. J. Probert, K. Refson,         |
 | M. C. Payne                                     |
 |                                                 |
 |       in all publications arising from          |
 |              your use of CASTEP                 |
 |                                                 |
 +-------------------------------------------------+


 Compiled for linux_x86_64_gfortran6.0-XT on Fri, 21 Jul 2017 10:20:05 +0100
 from code version 056e886bd5a1+ Castep172_branch Mon, 15 May 2017 14:45:35 +0100
 Compiler: GNU Fortran 6.3.0; Optimisation: fast
 MATHLIBS: Intel MKL(2017.0.0) (LAPACK version 3.6.0)
 FFT Lib : fftw3 version commercial-fftw-3.3.4-sse2-avx
 Fundamental constants values: CODATA 2010

 Run started: Fri, 20 Sep 2019 15:51:39 +0100

 Atomic calculation performed for Al: 1s2 2s2 2p6 3s2 3p1

 Converged in 55 iterations to an ae energy of -6578.725 eV

   ============================================================                
   | Pseudopotential Report - Date of generation 20-09-2019   |                
   ------------------------------------------------------------                
   | Element: Al Ionic charge:  3.00 Level of theory: LDA     |                
   | Atomic Solver: Koelling-Harmon                           |                
   |                                                          |                
   |               Reference Electronic Structure             |                
   |         Orbital         Occupation         Energy        |                
   |            3s              2.000           -0.288        |                
   |            3p              1.000           -0.102        |                
   |                                                          |                
   |                 Pseudopotential Definition               |                
   |        Beta     l      e      Rc     scheme   norm       |                
   |          1      0   -0.288   2.192     qc      0         |                
   |          2      0    0.250   2.192     qc      0         |                
   |          3      1   -0.102   2.192     qc      0         |                
   |          4      1    0.250   2.192     qc      0         |                
   |          5      2    0.000   2.000     qc      0         |                
   |          6      2    0.250   2.000     qc      0         |                
   |         loc     3    0.000   2.192     pn      0         |                
   |                                                          |                
   | Augmentation charge Rinner = 1.398                       |                
   | Partial core correction Rc = 1.398                       |                
   ------------------------------------------------------------                
   | "3|2.2|2.2|1.4|4|5|5|30:31:32U2U2"                       |                
   ------------------------------------------------------------                
   |      Author: Chris J. Pickard, Cambridge University      |                
   ============================================================                

 Atomic calculation performed for Ti: 1s2 2s2 2p6 3s2 3p6 3d2 4s2

 Converged in 78 iterations to an ae energy of -23176.516 eV

   ============================================================                
   | Pseudopotential Report - Date of generation 20-09-2019   |                
   ------------------------------------------------------------                
   | Element: Ti Ionic charge: 12.00 Level of theory: LDA     |                
   | Atomic Solver: Koelling-Harmon                           |                
   |                                                          |                
   |               Reference Electronic Structure             |                
   |         Orbital         Occupation         Energy        |                
   |            3s              2.000           -2.288        |                
   |            3p              6.000           -1.425        |                
   |            4s              2.000           -0.169        |                
   |            3d              2.000           -0.164        |                
   |                                                          |                
   |                 Pseudopotential Definition               |                
   |        Beta     l      e      Rc     scheme   norm       |                
   |          1      0   -2.288   1.793     qc      0         |                
   |          2      0   -0.169   1.793     qc      0         |                
   |          3      0    0.250   1.793     qc      0         |                
   |          4      1   -1.425   1.793     qc      0         |                
   |          5      1    0.250   1.793     qc      0         |                
   |          6      2   -0.164   1.793     qc      0         |                
   |          7      2    0.250   1.793     qc      0         |                
   |         loc     3    0.000   1.793     pn      0         |                
   |                                                          |                
   | Augmentation charge Rinner = 1.263                       |                
   | Partial core correction Rc = 1.263                       |                
   ------------------------------------------------------------                
   | "3|1.8|9|10|11|30U:40:31:32(qc=5.5)"                     |                
   ------------------------------------------------------------                
   |      Author: Chris J. Pickard, Cambridge University      |                
   ============================================================                

 Pseudo atomic calculation performed for Al 3s2 3p1

 Converged in 15 iterations to a total energy of -105.5952 eV


 Pseudo atomic calculation performed for Ti 3s2 3p6 3d2 4s2

 Converged in 31 iterations to a total energy of -1585.9998 eV

 Calculation parallelised over 48 processes.
 Data is distributed by k-point(48-way)

 ************************************ Title ************************************
 

 ***************************** General Parameters ******************************
  
 output verbosity                               : normal  (1)
 write checkpoint data to                       : castep.check
 type of calculation                            : single point energy
 stress calculation                             : on
 density difference calculation                 : off
 electron localisation func (ELF) calculation   : off
 Hirshfeld analysis                             : off
 unlimited duration calculation
 timing information                             : on
 memory usage estimate                          : on
 write final potential to formatted file        : off
 write final density to formatted file          : off
 write BibTeX reference list                    : on
 write OTFG pseudopotential files               : on
 write electrostatic potential file             : on
 write bands file                               : on
 checkpoint writing                             : off
  
 output         length unit                     : A
 output           mass unit                     : amu
 output           time unit                     : ps
 output         charge unit                     : e
 output           spin unit                     : hbar/2
 output         energy unit                     : eV
 output          force unit                     : eV/A
 output       velocity unit                     : A/ps
 output       pressure unit                     : GPa
 output     inv_length unit                     : 1/A
 output      frequency unit                     : cm-1
 output force constant unit                     : eV/A**2
 output         volume unit                     : A**3
 output   IR intensity unit                     : (D/A)**2/amu
 output         dipole unit                     : D
 output         efield unit                     : eV/A/e
 output        entropy unit                     : J/mol/K
  
 wavefunctions paging                           : none
 random number generator seed                   : randomised (155139661)
 data distribution                              : optimal for this architecture
 optimization strategy                          : maximize speed(+++)

 *********************** Exchange-Correlation Parameters ***********************
  
 using functional                               : Local Density Approximation
 relativistic treatment                         : Koelling-Harmon
 DFT+D: Semi-empirical dispersion correction    : off

 ************************* Pseudopotential Parameters **************************
  
 pseudopotential representation                 : reciprocal space
 <beta|phi> representation                      : reciprocal space
 spin-orbit coupling                            : off

 **************************** Basis Set Parameters *****************************
  
 plane wave basis set cut-off                   :   600.0000   eV
 size of standard grid                          :     1.7500
 size of   fine   gmax                          :    21.9610   1/A
 finite basis set correction                    : automatic
 number of sample energies                      :          3
           sample  spacing                      :     5.0000   eV

 **************************** Electronic Parameters ****************************
  
 number of  electrons                           :  21.00    
 net charge of system                           :  0.000    
 net spin   of system                           :  1.000    
 number of  up  spins                           :  11.00    
 number of down spins                           :  10.00    
 treating system as spin-polarized
 number of bands                                :         15

 ********************* Electronic Minimization Parameters **********************
  
 Method: Treating system as metallic with density mixing treatment of electrons,
         and number of  SD  steps               :          1
         and number of  CG  steps               :          4
  
 total energy / atom convergence tol.           : 0.1000E-04   eV
 eigen-energy convergence tolerance             : 0.1000E-05   eV
 max force / atom convergence tol.              : ignored
 convergence tolerance window                   :          3   cycles
 max. number of SCF cycles                      :        250
 number of fixed-spin iterations                :         10
 smearing scheme                                : Gaussian
 smearing width                                 : 0.1000       eV
 Fermi energy convergence tolerance             : 0.2721E-13   eV
 periodic dipole correction                     : NONE

 ************************** Density Mixing Parameters **************************
  
 density-mixing scheme                          : Pulay
 max. length of mixing history                  :         20
 charge density mixing amplitude                : 0.8000    
   spin density mixing amplitude                :  2.000    
 cut-off energy for mixing                      :  600.0       eV

 *********************** Population Analysis Parameters ************************
  
 Population analysis with cutoff                :  3.000       A

 *******************************************************************************
  

                           -------------------------------
                                      Unit Cell
                           -------------------------------
        Real Lattice(A)                      Reciprocal Lattice(1/A)
   5.1390210   0.0000000   0.0000000        1.2226425  -0.5809923   1.1443064
   2.2056670   4.6416140   0.0000000        0.0000000   1.3536639   1.1443064
  -3.6723440  -2.3208070   2.7454120        0.0000000   0.0000000   2.2886129

                       Lattice parameters(A)       Cell Angles
                    a =    5.139021          alpha =  135.610419
                    b =    5.139022          beta  =  135.610414
                    c =    5.139022          gamma =   64.583215

                       Current cell volume =   65.487278       A**3
                                   density =    1.966972   AMU/A**3
                                           =    3.266233     g/cm^3

                           -------------------------------
                                     Cell Contents
                           -------------------------------
                         Total number of ions in cell =    4
                      Total number of species in cell =    2
                        Max number of any one species =    3

            xxxxxxxxxxxxxxxxxxxxxxxxxxxxxxxxxxxxxxxxxxxxxxxxxxxxxxxxxxxx
            x  Element    Atom        Fractional coordinates of atoms  x
            x            Number           u          v          w      x
            x----------------------------------------------------------x
            x  Al           1         0.502359   0.504977   0.000000   x 
            x  Al           2         0.757648   0.254207   0.508415   x 
            x  Al           3         0.253652   0.759185   0.508415   x 
            x  Ti           1         0.000000   0.000000   0.000000   x 
            xxxxxxxxxxxxxxxxxxxxxxxxxxxxxxxxxxxxxxxxxxxxxxxxxxxxxxxxxxxx


                         No user defined ionic velocities

                           -------------------------------
                                   Details of Species
                           -------------------------------

                               Mass of species in AMU
                                    Al   26.9815400
                                    Ti   47.8670000

                          Electric Quadrupole Moment (Barn)
                                    Al    0.1466000 Isotope 27
                                    Ti    0.3020000 Isotope 47

                          Files used for pseudopotentials:
                                    Al 3|2.2|2.2|1.4|4|5|5|30:31:32U2U2
                                    Ti 3|1.8|9|10|11|30U:40:31:32(qc=5.5)

                           -------------------------------
                              k-Points For BZ Sampling
                           -------------------------------
                       MP grid size for SCF calculation is  8  8 10
                            with an offset of   0.000  0.000  0.000
                       Number of kpoints used =           320

                           -------------------------------
                               Symmetry and Constraints
                           -------------------------------

                      Maximum deviation from symmetry =  0.00000         ANG

                      Number of symmetry operations   =           1
                      Number of ionic constraints     =           3
                      Point group of crystal =     1: C1, 1, 1
                      Space group of crystal =     1: P1, P 1

             Set iprint > 1 for details on symmetry rotations/translations

                         Centre of mass is constrained
             Set iprint > 1 for details of linear ionic constraints

                         Number of cell constraints= 0
                         Cell constraints are:  1 2 3 4 5 6

                         External pressure/stress (GPa)
                          0.00000   0.00000   0.00000
                                    0.00000   0.00000
                                              0.00000
  
+---------------- MEMORY AND SCRATCH DISK ESTIMATES PER PROCESS --------------+
|                                                     Memory          Disk    |
| Baseline code, static data and system overhead      172.0 MB         0.0 MB |
| BLAS internal memory storage                          0.0 MB         0.0 MB |
| Model and support data                              188.3 MB         0.0 MB |
| Electronic energy minimisation requirements          28.1 MB         0.0 MB |
| Force calculation requirements                       10.3 MB         0.0 MB |
| Stress calculation requirements                      10.3 MB         0.0 MB |
|                                               ----------------------------- |
| Approx. total storage required per process          388.5 MB         0.0 MB |
|                                                                             |
| Requirements will fluctuate during execution and may exceed these estimates |
+-----------------------------------------------------------------------------+
Calculating finite basis set correction with  3 cut-off energies.
Calculating total energy with cut-off of  590.000 eV.
------------------------------------------------------------------------ <-- SCF
SCF loop      Energy           Fermi           Energy gain       Timer   <-- SCF
                               energy          per atom          (sec)   <-- SCF
------------------------------------------------------------------------ <-- SCF
Initial  -1.36467592E+003  0.00000000E+000                        19.90  <-- SCF
      1  -1.87205926E+003  8.80538313E+000   1.26845835E+002      22.73  <-- SCF
      2  -1.92294450E+003  6.11315662E+000   1.27213120E+001      24.91  <-- SCF
      3  -1.92455665E+003  6.00164040E+000   4.03037227E-001      27.30  <-- SCF
      4  -1.92440424E+003  6.12646815E+000  -3.81023616E-002      30.61  <-- SCF
      5  -1.92442641E+003  5.87240079E+000   5.54244350E-003      33.84  <-- SCF
      6  -1.92438877E+003  6.05617840E+000  -9.41166002E-003      36.98  <-- SCF
      7  -1.92438896E+003  6.03384167E+000   4.83476981E-005      40.19  <-- SCF
      8  -1.92438930E+003  6.03075630E+000   8.56354581E-005      43.09  <-- SCF
      9  -1.92438931E+003  6.03053493E+000   2.81569931E-006      45.32  <-- SCF
     10  -1.92450611E+003  5.90263972E+000   2.91991714E-002      47.49  <-- SCF
     11  -1.92456093E+003  5.72288107E+000   1.37045993E-002      50.55  <-- SCF
     12  -1.92456126E+003  5.85616204E+000   8.37779808E-005      53.58  <-- SCF
     13  -1.92456396E+003  5.82255647E+000   6.73547839E-004      56.51  <-- SCF
     14  -1.92456628E+003  5.82263532E+000   5.80806800E-004      59.39  <-- SCF
     15  -1.92456636E+003  5.82296115E+000   2.04562958E-005      61.97  <-- SCF
     16  -1.92456637E+003  5.82347473E+000   1.10451995E-006      64.02  <-- SCF
     17  -1.92456637E+003  5.82358611E+000   2.38653172E-007      66.05  <-- SCF
------------------------------------------------------------------------ <-- SCF
 
Integrated Spin Density     =    0.207425E-03 hbar/2                        
Integrated |Spin Density|   =    0.694477E-03 hbar/2                        
 
Final energy, E             =  -1924.556860951     eV
Final free energy (E-TS)    =  -1924.566369284     eV
(energies not corrected for finite basis set)
 
NB est. 0K energy (E-0.5TS)      =  -1924.561615118     eV
 
Calculating total energy with cut-off of  595.000 eV.
------------------------------------------------------------------------ <-- SCF
SCF loop      Energy           Fermi           Energy gain       Timer   <-- SCF
                               energy          per atom          (sec)   <-- SCF
------------------------------------------------------------------------ <-- SCF
Initial  -1.92455686E+003  0.00000000E+000                        67.68  <-- SCF
      1  -1.92456639E+003  5.82331802E+000   2.38134685E-003      69.51  <-- SCF
      2  -1.92456639E+003  5.82331802E+000   1.47667999E-008      71.54  <-- SCF
      3  -1.92456639E+003  5.82384154E+000   4.70725340E-008      73.57  <-- SCF
      4  -1.92456639E+003  5.82348263E+000  -4.89355437E-008      75.59  <-- SCF
------------------------------------------------------------------------ <-- SCF
 
Integrated Spin Density     =    0.541982E-04 hbar/2                        
Integrated |Spin Density|   =    0.183409E-03 hbar/2                        
 
Final energy, E             =  -1924.556877339     eV
Final free energy (E-TS)    =  -1924.566386418     eV
(energies not corrected for finite basis set)
 
NB est. 0K energy (E-0.5TS)      =  -1924.561631878     eV
 
Calculating total energy with cut-off of  600.000 eV.
------------------------------------------------------------------------ <-- SCF
SCF loop      Energy           Fermi           Energy gain       Timer   <-- SCF
                               energy          per atom          (sec)   <-- SCF
------------------------------------------------------------------------ <-- SCF
Initial  -1.92455688E+003  0.00000000E+000                        77.22  <-- SCF
      1  -1.92456640E+003  5.82313284E+000   2.38134328E-003      79.05  <-- SCF
      2  -1.92456640E+003  5.82313283E+000   6.74418973E-009      81.08  <-- SCF
      3  -1.92456640E+003  5.82417894E+000   1.33093871E-007      83.10  <-- SCF
      4  -1.92456640E+003  5.82347852E+000  -1.90700322E-007      85.13  <-- SCF
------------------------------------------------------------------------ <-- SCF
 
Integrated Spin Density     =    0.126618E-04 hbar/2                        
Integrated |Spin Density|   =    0.449193E-04 hbar/2                        
 
Final energy, E             =  -1924.556893372     eV
Final free energy (E-TS)    =  -1924.566402480     eV
(energies not corrected for finite basis set)
 
NB est. 0K energy (E-0.5TS)      =  -1924.561647926     eV
 
 For future reference: finite basis dEtot/dlog(Ecut) =      -0.001965eV
 Total energy corrected for finite basis set =   -1924.566402 eV

 ******************* Unconstrained Forces *******************
 *                                                          *
 *               Cartesian components (eV/A)                *
 * -------------------------------------------------------- *
 *                         x            y            z      *
 *                                                          *
 * Al              1     -0.01365     -0.06068      0.03766 *
 * Al              2     -0.07251      0.08068     -0.05230 *
 * Al              3      0.02396     -0.11268     -0.05229 *
 * Ti              1      0.06220      0.09268      0.06693 *
 *                                                          *
 ************************************************************

 ******************** Constrained Forces ********************
 *                                                          *
 *               Cartesian components (eV/A)                *
 * -------------------------------------------------------- *
 *                         x            y            z      *
 *                                                          *
 * Al              1     -0.01365     -0.06068      0.03766 *
 * Al              2     -0.07251      0.08068     -0.05230 *
 * Al              3      0.02396     -0.11268     -0.05229 *
 * Ti              1      0.06220      0.09268      0.06693 *
 *                                                          *
 ************************************************************

 ***************** Stress Tensor *****************
 *                                               *
 *          Cartesian components (GPa)           *
 * --------------------------------------------- *
 *             x             y             z     *
 *                                               *
 *  x      7.476564     -0.290646     -0.160308  *
 *  y     -0.290646      7.748207     -0.108791  *
 *  z     -0.160308     -0.108791      8.105873  *
 *                                               *
 *  Pressure:   -7.7769                          *
 *                                               *
 *************************************************

 Pseudo atomic calculation performed for Al 3s2 3p1

 Converged in 15 iterations to a total energy of -105.5952 eV


 Pseudo atomic calculation performed for Ti 3s2 3p6 3d2 4s2

 Converged in 31 iterations to a total energy of -1585.9998 eV

Charge spilling parameter for spin component 1 = 0.48%
Charge spilling parameter for spin component 2 = 0.48%

     Atomic Populations (Mulliken)
     -----------------------------
Species          Ion     s      p      d      f     Total  Charge (e)  Spin (hbar/2)
==================================================================================
  Al              1     1.07   1.83   0.00   0.00   2.90     0.10        0.00
  Al              2     1.03   2.04   0.00   0.00   3.07    -0.07       -0.00
  Al              3     1.03   2.04   0.00   0.00   3.07    -0.07       -0.00
  Ti              1     2.24   6.72   3.00   0.00  11.96     0.04        0.00
==================================================================================

                 Bond                   Population        Spin       Length (A)
================================================================================
              Al 2 -- Al 3                   1.55        -0.00          2.72078
              Al 1 -- Ti 1                   1.40         0.00          2.73841
================================================================================

 
 A BibTeX formatted list of references used in this run has been written to 
 castep.bib
 
Initialisation time =     12.57 s
Calculation time    =     86.91 s
Finalisation time   =      0.06 s
Total time          =     99.54 s
Peak Memory Use     = 795444 kB
  
Overall parallel efficiency rating: Very good (86%)                             
  
Data was distributed by:-
k-point (48-way); efficiency rating: Very good (86%)                            
  
Parallel notes:
1) Calculation only took 99.5 s, so efficiency estimates may be inaccurate.     
 +-------------------------------------------------+
 |                                                 |
 |      CCC   AA    SSS  TTTTT  EEEEE  PPPP        |
 |     C     A  A  S       T    E      P   P       |
 |     C     AAAA   SS     T    EEE    PPPP        |
 |     C     A  A     S    T    E      P           |
 |      CCC  A  A  SSS     T    EEEEE  P           |
 |                                                 |
 +-------------------------------------------------+
 |                                                 |
 | Welcome to Academic Release CASTEP version 17.21|          
 | Ab Initio Total Energy Program                  |
 |                                                 |
 | Authors:                                        |
 | M. Segall, M. Probert, C. Pickard, P. Hasnip,   |
 | S. Clark, K. Refson, J. R. Yates, M. Payne      |
 |                                                 |
 | Contributors:                                   |
 | P. Lindan, P. Haynes, J. White, V. Milman,      |
 | N. Govind, M. Gibson, P. Tulip, V. Cocula,      |
 | B. Montanari, D. Quigley, M. Glover,            |
 | L. Bernasconi, A. Perlov, M. Plummer,           |
 | E. McNellis, J. Meyer, J. Gale, D. Jochym       |
 | J. Aarons, B. Walker, R. Gillen, D. Jones       |
 | T. Green, I. J. Bush, C. J. Armstrong,          |
 | E. J. Higgins, E. L. Brown, M. S. McFly,        |
 | J. Wilkins, B-C. Shih, P. J. P. Byrne           |
 |                                                 |
 | Copyright (c) 2000 - 2017                       |
 |                                                 |
 |     Distributed under the terms of an           |
 |     Agreement between the United Kingdom        |
 |     Car-Parrinello (UKCP) Consortium,           |
 |     Daresbury Laboratory and Accelrys, Inc.     |
 |                                                 |
 | Please cite                                     |
 |                                                 |
 |     "First principles methods using CASTEP"     |
 |                                                 |
 |         Zeitschrift fuer Kristallographie       |
 |           220(5-6) pp. 567-570 (2005)           |
 |                                                 |
 | S. J. Clark, M. D. Segall, C. J. Pickard,       |
 | P. J. Hasnip, M. J. Probert, K. Refson,         |
 | M. C. Payne                                     |
 |                                                 |
 |       in all publications arising from          |
 |              your use of CASTEP                 |
 |                                                 |
 +-------------------------------------------------+


 Compiled for linux_x86_64_gfortran6.0-XT on Fri, 21 Jul 2017 10:20:05 +0100
 from code version 056e886bd5a1+ Castep172_branch Mon, 15 May 2017 14:45:35 +0100
 Compiler: GNU Fortran 6.3.0; Optimisation: fast
 MATHLIBS: Intel MKL(2017.0.0) (LAPACK version 3.6.0)
 FFT Lib : fftw3 version commercial-fftw-3.3.4-sse2-avx
 Fundamental constants values: CODATA 2010

 Run started: Fri, 20 Sep 2019 15:53:25 +0100

 Atomic calculation performed for Al: 1s2 2s2 2p6 3s2 3p1

 Converged in 55 iterations to an ae energy of -6578.725 eV

   ============================================================                
   | Pseudopotential Report - Date of generation 20-09-2019   |                
   ------------------------------------------------------------                
   | Element: Al Ionic charge:  3.00 Level of theory: LDA     |                
   | Atomic Solver: Koelling-Harmon                           |                
   |                                                          |                
   |               Reference Electronic Structure             |                
   |         Orbital         Occupation         Energy        |                
   |            3s              2.000           -0.288        |                
   |            3p              1.000           -0.102        |                
   |                                                          |                
   |                 Pseudopotential Definition               |                
   |        Beta     l      e      Rc     scheme   norm       |                
   |          1      0   -0.288   2.192     qc      0         |                
   |          2      0    0.250   2.192     qc      0         |                
   |          3      1   -0.102   2.192     qc      0         |                
   |          4      1    0.250   2.192     qc      0         |                
   |          5      2    0.000   2.000     qc      0         |                
   |          6      2    0.250   2.000     qc      0         |                
   |         loc     3    0.000   2.192     pn      0         |                
   |                                                          |                
   | Augmentation charge Rinner = 1.398                       |                
   | Partial core correction Rc = 1.398                       |                
   ------------------------------------------------------------                
   | "3|2.2|2.2|1.4|4|5|5|30:31:32U2U2"                       |                
   ------------------------------------------------------------                
   |      Author: Chris J. Pickard, Cambridge University      |                
   ============================================================                

 Atomic calculation performed for Ti: 1s2 2s2 2p6 3s2 3p6 3d2 4s2

 Converged in 78 iterations to an ae energy of -23176.516 eV

   ============================================================                
   | Pseudopotential Report - Date of generation 20-09-2019   |                
   ------------------------------------------------------------                
   | Element: Ti Ionic charge: 12.00 Level of theory: LDA     |                
   | Atomic Solver: Koelling-Harmon                           |                
   |                                                          |                
   |               Reference Electronic Structure             |                
   |         Orbital         Occupation         Energy        |                
   |            3s              2.000           -2.288        |                
   |            3p              6.000           -1.425        |                
   |            4s              2.000           -0.169        |                
   |            3d              2.000           -0.164        |                
   |                                                          |                
   |                 Pseudopotential Definition               |                
   |        Beta     l      e      Rc     scheme   norm       |                
   |          1      0   -2.288   1.793     qc      0         |                
   |          2      0   -0.169   1.793     qc      0         |                
   |          3      0    0.250   1.793     qc      0         |                
   |          4      1   -1.425   1.793     qc      0         |                
   |          5      1    0.250   1.793     qc      0         |                
   |          6      2   -0.164   1.793     qc      0         |                
   |          7      2    0.250   1.793     qc      0         |                
   |         loc     3    0.000   1.793     pn      0         |                
   |                                                          |                
   | Augmentation charge Rinner = 1.263                       |                
   | Partial core correction Rc = 1.263                       |                
   ------------------------------------------------------------                
   | "3|1.8|9|10|11|30U:40:31:32(qc=5.5)"                     |                
   ------------------------------------------------------------                
   |      Author: Chris J. Pickard, Cambridge University      |                
   ============================================================                

 Pseudo atomic calculation performed for Al 3s2 3p1

 Converged in 15 iterations to a total energy of -105.5952 eV


 Pseudo atomic calculation performed for Ti 3s2 3p6 3d2 4s2

 Converged in 31 iterations to a total energy of -1585.9998 eV

 Calculation parallelised over 48 processes.
 Data is distributed by k-point(48-way)

 ************************************ Title ************************************
 

 ***************************** General Parameters ******************************
  
 output verbosity                               : normal  (1)
 write checkpoint data to                       : castep.check
 type of calculation                            : single point energy
 stress calculation                             : on
 density difference calculation                 : off
 electron localisation func (ELF) calculation   : off
 Hirshfeld analysis                             : off
 unlimited duration calculation
 timing information                             : on
 memory usage estimate                          : on
 write final potential to formatted file        : off
 write final density to formatted file          : off
 write BibTeX reference list                    : on
 write OTFG pseudopotential files               : on
 write electrostatic potential file             : on
 write bands file                               : on
 checkpoint writing                             : off
  
 output         length unit                     : A
 output           mass unit                     : amu
 output           time unit                     : ps
 output         charge unit                     : e
 output           spin unit                     : hbar/2
 output         energy unit                     : eV
 output          force unit                     : eV/A
 output       velocity unit                     : A/ps
 output       pressure unit                     : GPa
 output     inv_length unit                     : 1/A
 output      frequency unit                     : cm-1
 output force constant unit                     : eV/A**2
 output         volume unit                     : A**3
 output   IR intensity unit                     : (D/A)**2/amu
 output         dipole unit                     : D
 output         efield unit                     : eV/A/e
 output        entropy unit                     : J/mol/K
  
 wavefunctions paging                           : none
 random number generator seed                   : randomised (155326026)
 data distribution                              : optimal for this architecture
 optimization strategy                          : maximize speed(+++)

 *********************** Exchange-Correlation Parameters ***********************
  
 using functional                               : Local Density Approximation
 relativistic treatment                         : Koelling-Harmon
 DFT+D: Semi-empirical dispersion correction    : off

 ************************* Pseudopotential Parameters **************************
  
 pseudopotential representation                 : reciprocal space
 <beta|phi> representation                      : reciprocal space
 spin-orbit coupling                            : off

 **************************** Basis Set Parameters *****************************
  
 plane wave basis set cut-off                   :   600.0000   eV
 size of standard grid                          :     1.7500
 size of   fine   gmax                          :    21.9610   1/A
 finite basis set correction                    : automatic
 number of sample energies                      :          3
           sample  spacing                      :     5.0000   eV

 **************************** Electronic Parameters ****************************
  
 number of  electrons                           :  21.00    
 net charge of system                           :  0.000    
 net spin   of system                           :  1.000    
 number of  up  spins                           :  11.00    
 number of down spins                           :  10.00    
 treating system as spin-polarized
 number of bands                                :         15

 ********************* Electronic Minimization Parameters **********************
  
 Method: Treating system as metallic with density mixing treatment of electrons,
         and number of  SD  steps               :          1
         and number of  CG  steps               :          4
  
 total energy / atom convergence tol.           : 0.1000E-04   eV
 eigen-energy convergence tolerance             : 0.1000E-05   eV
 max force / atom convergence tol.              : ignored
 convergence tolerance window                   :          3   cycles
 max. number of SCF cycles                      :        250
 number of fixed-spin iterations                :         10
 smearing scheme                                : Gaussian
 smearing width                                 : 0.1000       eV
 Fermi energy convergence tolerance             : 0.2721E-13   eV
 periodic dipole correction                     : NONE

 ************************** Density Mixing Parameters **************************
  
 density-mixing scheme                          : Pulay
 max. length of mixing history                  :         20
 charge density mixing amplitude                : 0.8000    
   spin density mixing amplitude                :  2.000    
 cut-off energy for mixing                      :  600.0       eV

 *********************** Population Analysis Parameters ************************
  
 Population analysis with cutoff                :  3.000       A

 *******************************************************************************
  

                           -------------------------------
                                      Unit Cell
                           -------------------------------
        Real Lattice(A)                      Reciprocal Lattice(1/A)
   5.0878870   0.0000000   0.0000000        1.2349302  -0.5868313   1.1558071
   2.1837200   4.5954290   0.0000000        0.0000000   1.3672685   1.1558065
  -3.6358040  -2.2977140   2.7180950        0.0000000   0.0000000   2.3116136

                       Lattice parameters(A)       Cell Angles
                    a =    5.087887          alpha =  135.610410
                    b =    5.087888          beta  =  135.610419
                    c =    5.087888          gamma =   64.583216

                       Current cell volume =   63.551843       A**3
                                   density =    2.026875   AMU/A**3
                                           =    3.365704     g/cm^3

                           -------------------------------
                                     Cell Contents
                           -------------------------------
                         Total number of ions in cell =    4
                      Total number of species in cell =    2
                        Max number of any one species =    3

            xxxxxxxxxxxxxxxxxxxxxxxxxxxxxxxxxxxxxxxxxxxxxxxxxxxxxxxxxxxx
            x  Element    Atom        Fractional coordinates of atoms  x
            x            Number           u          v          w      x
            x----------------------------------------------------------x
            x  Al           1         0.500000   0.500000   0.000000   x 
            x  Al           2         0.750000   0.250000   0.500000   x 
            x  Al           3         0.250000   0.750000   0.500000   x 
            x  Ti           1         0.000000   0.000000   0.000000   x 
            xxxxxxxxxxxxxxxxxxxxxxxxxxxxxxxxxxxxxxxxxxxxxxxxxxxxxxxxxxxx


                         No user defined ionic velocities

                           -------------------------------
                                   Details of Species
                           -------------------------------

                               Mass of species in AMU
                                    Al   26.9815400
                                    Ti   47.8670000

                          Electric Quadrupole Moment (Barn)
                                    Al    0.1466000 Isotope 27
                                    Ti    0.3020000 Isotope 47

                          Files used for pseudopotentials:
                                    Al 3|2.2|2.2|1.4|4|5|5|30:31:32U2U2
                                    Ti 3|1.8|9|10|11|30U:40:31:32(qc=5.5)

                           -------------------------------
                              k-Points For BZ Sampling
                           -------------------------------
                       MP grid size for SCF calculation is  8  8 10
                            with an offset of   0.000  0.000  0.000
                       Number of kpoints used =           320

                           -------------------------------
                               Symmetry and Constraints
                           -------------------------------

                      Maximum deviation from symmetry =  0.00000         ANG

                      Number of symmetry operations   =           1
                      Number of ionic constraints     =           3
                      Point group of crystal =     1: C1, 1, 1
                      Space group of crystal =   139: I4/mmm, -I 4 2

             Set iprint > 1 for details on symmetry rotations/translations

                         Centre of mass is constrained
             Set iprint > 1 for details of linear ionic constraints

                         Number of cell constraints= 0
                         Cell constraints are:  1 2 3 4 5 6

                         External pressure/stress (GPa)
                          0.00000   0.00000   0.00000
                                    0.00000   0.00000
                                              0.00000
  
+---------------- MEMORY AND SCRATCH DISK ESTIMATES PER PROCESS --------------+
|                                                     Memory          Disk    |
| Baseline code, static data and system overhead      172.0 MB         0.0 MB |
| BLAS internal memory storage                          0.0 MB         0.0 MB |
| Model and support data                              188.0 MB         0.0 MB |
| Electronic energy minimisation requirements          27.5 MB         0.0 MB |
| Force calculation requirements                       10.3 MB         0.0 MB |
| Stress calculation requirements                      10.3 MB         0.0 MB |
|                                               ----------------------------- |
| Approx. total storage required per process          387.4 MB         0.0 MB |
|                                                                             |
| Requirements will fluctuate during execution and may exceed these estimates |
+-----------------------------------------------------------------------------+
Calculating finite basis set correction with  3 cut-off energies.
Calculating total energy with cut-off of  590.000 eV.
------------------------------------------------------------------------ <-- SCF
SCF loop      Energy           Fermi           Energy gain       Timer   <-- SCF
                               energy          per atom          (sec)   <-- SCF
------------------------------------------------------------------------ <-- SCF
Initial  -1.36678357E+003  0.00000000E+000                        19.95  <-- SCF
      1  -1.87283523E+003  9.01615315E+000   1.26512916E+002      22.74  <-- SCF
      2  -1.92310427E+003  6.33192663E+000   1.25672595E+001      24.88  <-- SCF
      3  -1.92463521E+003  6.23617781E+000   3.82734951E-001      27.25  <-- SCF
      4  -1.92448056E+003  6.38023885E+000  -3.86627192E-002      30.50  <-- SCF
      5  -1.92450324E+003  6.11111393E+000   5.67075833E-003      33.65  <-- SCF
      6  -1.92446252E+003  6.29950953E+000  -1.01799218E-002      36.71  <-- SCF
      7  -1.92446278E+003  6.27842961E+000   6.45419975E-005      39.83  <-- SCF
      8  -1.92446312E+003  6.27544430E+000   8.55935032E-005      42.68  <-- SCF
      9  -1.92446313E+003  6.27522894E+000   2.77678473E-006      44.87  <-- SCF
     10  -1.92458766E+003  6.14025812E+000   3.11327047E-002      47.00  <-- SCF
     11  -1.92464222E+003  5.96584777E+000   1.36396805E-002      50.05  <-- SCF
     12  -1.92464403E+003  6.09568815E+000   4.51877750E-004      53.03  <-- SCF
     13  -1.92464626E+003  6.06243629E+000   5.57019361E-004      55.95  <-- SCF
     14  -1.92464841E+003  6.06270855E+000   5.37576655E-004      58.79  <-- SCF
     15  -1.92464848E+003  6.06302557E+000   1.72500390E-005      61.28  <-- SCF
     16  -1.92464848E+003  6.06346095E+000   9.00280207E-007      63.30  <-- SCF
     17  -1.92464848E+003  6.06356991E+000   1.94063330E-007      65.31  <-- SCF
------------------------------------------------------------------------ <-- SCF
 
Integrated Spin Density     =    0.194363E-03 hbar/2                        
Integrated |Spin Density|   =    0.663989E-03 hbar/2                        
 
Final energy, E             =  -1924.639145912     eV
Final free energy (E-TS)    =  -1924.648480787     eV
(energies not corrected for finite basis set)
 
NB est. 0K energy (E-0.5TS)      =  -1924.643813350     eV
 
Calculating total energy with cut-off of  595.000 eV.
------------------------------------------------------------------------ <-- SCF
SCF loop      Energy           Fermi           Energy gain       Timer   <-- SCF
                               energy          per atom          (sec)   <-- SCF
------------------------------------------------------------------------ <-- SCF
Initial  -1.92463915E+003  0.00000000E+000                        66.93  <-- SCF
      1  -1.92464850E+003  6.06338437E+000   2.33797832E-003      68.72  <-- SCF
      2  -1.92464850E+003  6.06338437E+000   1.33501353E-008      70.72  <-- SCF
      3  -1.92464850E+003  6.06371650E+000   2.36005071E-008      72.72  <-- SCF
      4  -1.92464850E+003  6.06348879E+000  -1.82607043E-008      74.73  <-- SCF
------------------------------------------------------------------------ <-- SCF
 
Integrated Spin Density     =    0.322923E-04 hbar/2                        
Integrated |Spin Density|   =    0.132068E-03 hbar/2                        
 
Final energy, E             =  -1924.639162509     eV
Final free energy (E-TS)    =  -1924.648497932     eV
(energies not corrected for finite basis set)
 
NB est. 0K energy (E-0.5TS)      =  -1924.643830221     eV
 
Calculating total energy with cut-off of  600.000 eV.
------------------------------------------------------------------------ <-- SCF
SCF loop      Energy           Fermi           Energy gain       Timer   <-- SCF
                               energy          per atom          (sec)   <-- SCF
------------------------------------------------------------------------ <-- SCF
Initial  -1.92463916E+003  0.00000000E+000                        76.34  <-- SCF
      1  -1.92464851E+003  6.06329046E+000   2.33780089E-003      78.14  <-- SCF
      2  -1.92464851E+003  6.06329045E+000   3.46325869E-009      80.15  <-- SCF
      3  -1.92464851E+003  6.06385717E+000   3.65360064E-008      82.16  <-- SCF
      4  -1.92464851E+003  6.06348331E+000  -5.34725634E-008      84.17  <-- SCF
------------------------------------------------------------------------ <-- SCF
 
Integrated Spin Density     =    0.114176E-04 hbar/2                        
Integrated |Spin Density|   =    0.397626E-04 hbar/2                        
 
Final energy, E             =  -1924.639178190     eV
Final free energy (E-TS)    =  -1924.648513651     eV
(energies not corrected for finite basis set)
 
NB est. 0K energy (E-0.5TS)      =  -1924.643845920     eV
 
 For future reference: finite basis dEtot/dlog(Ecut) =      -0.001935eV
 Total energy corrected for finite basis set =   -1924.648514 eV

 ******************* Unconstrained Forces *******************
[...]

 Pseudo atomic calculation performed for Al 3s2 3p1

 Converged in 15 iterations to a total energy of -105.5952 eV


 Pseudo atomic calculation performed for Ti 3s2 3p6 3d2 4s2

 Converged in 31 iterations to a total energy of -1585.9998 eV

 Calculation parallelised over 48 processes.
 Data is distributed by k-point(48-way)

 ************************************ Title ************************************
 

 ***************************** General Parameters ******************************
  
 output verbosity                               : normal  (1)
 write checkpoint data to                       : castep.check
 type of calculation                            : single point energy
 stress calculation                             : on
 density difference calculation                 : off
 electron localisation func (ELF) calculation   : off
 Hirshfeld analysis                             : off
 unlimited duration calculation
 timing information                             : on
 memory usage estimate                          : on
 write final potential to formatted file        : off
 write final density to formatted file          : off
 write BibTeX reference list                    : on
 write OTFG pseudopotential files               : on
 write electrostatic potential file             : on
 write bands file                               : on
 checkpoint writing                             : off
  
 output         length unit                     : A
 output           mass unit                     : amu
 output           time unit                     : ps
 output         charge unit                     : e
 output           spin unit                     : hbar/2
 output         energy unit                     : eV
 output          force unit                     : eV/A
 output       velocity unit                     : A/ps
 output       pressure unit                     : GPa
 output     inv_length unit                     : 1/A
 output      frequency unit                     : cm-1
 output force constant unit                     : eV/A**2
 output         volume unit                     : A**3
 output   IR intensity unit                     : (D/A)**2/amu
 output         dipole unit                     : D
 output         efield unit                     : eV/A/e
 output        entropy unit                     : J/mol/K
  
 wavefunctions paging                           : none
 random number generator seed                   : randomised (164946182)
 data distribution                              : optimal for this architecture
 optimization strategy                          : maximize speed(+++)

 *********************** Exchange-Correlation Parameters ***********************
  
 using functional                               : Local Density Approximation
 relativistic treatment                         : Koelling-Harmon
 DFT+D: Semi-empirical dispersion correction    : off

 ************************* Pseudopotential Parameters **************************
  
 pseudopotential representation                 : reciprocal space
 <beta|phi> representation                      : reciprocal space
 spin-orbit coupling                            : off

 **************************** Basis Set Parameters *****************************
  
 plane wave basis set cut-off                   :   600.0000   eV
 size of standard grid                          :     1.7500
 size of   fine   gmax                          :    21.9610   1/A
 finite basis set correction                    : automatic
 number of sample energies                      :          3
           sample  spacing                      :     5.0000   eV

 **************************** Electronic Parameters ****************************
  
 number of  electrons                           :  21.00    
 net charge of system                           :  0.000    
 net spin   of system                           :  1.000    
 number of  up  spins                           :  11.00    
 number of down spins                           :  10.00    
 treating system as spin-polarized
 number of bands                                :         15

 ********************* Electronic Minimization Parameters **********************
  
 Method: Treating system as metallic with density mixing treatment of electrons,
         and number of  SD  steps               :          1
         and number of  CG  steps               :          4
  
 total energy / atom convergence tol.           : 0.1000E-04   eV
 eigen-energy convergence tolerance             : 0.1000E-05   eV
 max force / atom convergence tol.              : ignored
 convergence tolerance window                   :          3   cycles
 max. number of SCF cycles                      :        250
 number of fixed-spin iterations                :         10
 smearing scheme                                : Gaussian
 smearing width                                 : 0.1000       eV
 Fermi energy convergence tolerance             : 0.2721E-13   eV
 periodic dipole correction                     : NONE

 ************************** Density Mixing Parameters **************************
  
 density-mixing scheme                          : Pulay
 max. length of mixing history                  :         20
 charge density mixing amplitude                : 0.8000    
   spin density mixing amplitude                :  2.000    
 cut-off energy for mixing                      :  600.0       eV

 *********************** Population Analysis Parameters ************************
  
 Population analysis with cutoff                :  3.000       A

 *******************************************************************************
  

                           -------------------------------
                                      Unit Cell
                           -------------------------------
        Real Lattice(A)                      Reciprocal Lattice(1/A)
   5.0029810   0.0540290   0.0011330        1.2622258  -0.6110416   1.1542659
   2.1960430   4.5384960   0.0011330       -0.0152890   1.3915299   1.1542662
  -3.5989150  -2.2958820   2.7201390       -0.0005194  -0.0003251   2.3089150

                       Lattice parameters(A)       Cell Angles
                    a =    5.003273          alpha =  135.876244
                    b =    5.041880          beta  =  135.702363
                    c =    5.061859          gamma =   63.560308

                       Current cell volume =   61.466344       A**3
                                   density =    2.095645   AMU/A**3
                                           =    3.479900     g/cm^3

                           -------------------------------
                                     Cell Contents
                           -------------------------------
                         Total number of ions in cell =    4
                      Total number of species in cell =    2
                        Max number of any one species =    3

            xxxxxxxxxxxxxxxxxxxxxxxxxxxxxxxxxxxxxxxxxxxxxxxxxxxxxxxxxxxx
            x  Element    Atom        Fractional coordinates of atoms  x
            x            Number           u          v          w      x
            x----------------------------------------------------------x
            x  Al           1         0.499995   0.500000   0.000000   x 
            x  Al           2         0.750007   0.249988   0.500000   x 
            x  Al           3         0.249983   0.750012   0.500000   x 
            x  Ti           1        -0.000005   0.000000   0.000000   x 
            xxxxxxxxxxxxxxxxxxxxxxxxxxxxxxxxxxxxxxxxxxxxxxxxxxxxxxxxxxxx


                         No user defined ionic velocities

                           -------------------------------
                                   Details of Species
                           -------------------------------

                               Mass of species in AMU
                                    Al   26.9815400
                                    Ti   47.8670000

                          Electric Quadrupole Moment (Barn)
                                    Al    0.1466000 Isotope 27
                                    Ti    0.3020000 Isotope 47

                          Files used for pseudopotentials:
                                    Al 3|2.2|2.2|1.4|4|5|5|30:31:32U2U2
                                    Ti 3|1.8|9|10|11|30U:40:31:32(qc=5.5)

                           -------------------------------
                              k-Points For BZ Sampling
                           -------------------------------
                       MP grid size for SCF calculation is  8  8 10
                            with an offset of   0.000  0.000  0.000
                       Number of kpoints used =           320

                           -------------------------------
                               Symmetry and Constraints
                           -------------------------------

                      Maximum deviation from symmetry =  0.00000         ANG

                      Number of symmetry operations   =           1
                      Number of ionic constraints     =           3
                      Point group of crystal =     1: C1, 1, 1
                      Space group of crystal =     2: P-1, -P 1

             Set iprint > 1 for details on symmetry rotations/translations

                         Centre of mass is constrained
             Set iprint > 1 for details of linear ionic constraints

                         Number of cell constraints= 0
                         Cell constraints are:  1 2 3 4 5 6

                         External pressure/stress (GPa)
                          0.00000   0.00000   0.00000
                                    0.00000   0.00000
                                              0.00000
  
+---------------- MEMORY AND SCRATCH DISK ESTIMATES PER PROCESS --------------+
|                                                     Memory          Disk    |
| Baseline code, static data and system overhead      172.0 MB         0.0 MB |
| BLAS internal memory storage                          0.0 MB         0.0 MB |
| Model and support data                              187.7 MB         0.0 MB |
| Electronic energy minimisation requirements          26.8 MB         0.0 MB |
| Force calculation requirements                       10.3 MB         0.0 MB |
| Stress calculation requirements                      10.3 MB         0.0 MB |
|                                               ----------------------------- |
| Approx. total storage required per process          386.5 MB         0.0 MB |
|                                                                             |
| Requirements will fluctuate during execution and may exceed these estimates |
+-----------------------------------------------------------------------------+
Calculating finite basis set correction with  3 cut-off energies.
Calculating total energy with cut-off of  590.000 eV.
------------------------------------------------------------------------ <-- SCF
SCF loop      Energy           Fermi           Energy gain       Timer   <-- SCF
                               energy          per atom          (sec)   <-- SCF
------------------------------------------------------------------------ <-- SCF
Initial  -1.36718611E+003  0.00000000E+000                        19.97  <-- SCF
      1  -1.87279628E+003  9.23920748E+000   1.26402543E+002      22.71  <-- SCF
      2  -1.92318279E+003  6.58407698E+000   1.25966284E+001      24.84  <-- SCF
      3  -1.92465306E+003  6.49829486E+000   3.67567200E-001      27.11  <-- SCF
      4  -1.92449553E+003  6.67526475E+000  -3.93838832E-002      30.32  <-- SCF
      5  -1.92451701E+003  6.37857660E+000   5.37098802E-003      33.43  <-- SCF
      6  -1.92447168E+003  6.57446395E+000  -1.13311710E-002      36.42  <-- SCF
      7  -1.92447199E+003  6.55445012E+000   7.72416010E-005      39.52  <-- SCF
      8  -1.92447235E+003  6.55161370E+000   8.94823644E-005      42.34  <-- SCF
      9  -1.92447236E+003  6.55137777E+000   2.67292999E-006      44.51  <-- SCF
     10  -1.92460950E+003  6.40636405E+000   3.42842824E-002      46.62  <-- SCF
     11  -1.92466351E+003  6.23943537E+000   1.35034773E-002      49.59  <-- SCF
     12  -1.92466610E+003  6.36424218E+000   6.45886125E-004      52.53  <-- SCF
     13  -1.92466792E+003  6.33202980E+000   4.55733384E-004      55.39  <-- SCF
     14  -1.92466987E+003  6.33231776E+000   4.87258247E-004      58.21  <-- SCF
     15  -1.92466993E+003  6.33262495E+000   1.45864196E-005      60.61  <-- SCF
     16  -1.92466993E+003  6.33296659E+000   7.83130822E-007      62.66  <-- SCF
     17  -1.92466993E+003  6.33305914E+000   1.60687025E-007      64.66  <-- SCF
------------------------------------------------------------------------ <-- SCF
 
Integrated Spin Density     =    0.180896E-03 hbar/2                        
Integrated |Spin Density|   =    0.651122E-03 hbar/2                        
 
Final energy, E             =  -1924.660504450     eV
Final free energy (E-TS)    =  -1924.669930575     eV
(energies not corrected for finite basis set)
 
NB est. 0K energy (E-0.5TS)      =  -1924.665217513     eV
 
Calculating total energy with cut-off of  595.000 eV.
------------------------------------------------------------------------ <-- SCF
SCF loop      Energy           Fermi           Energy gain       Timer   <-- SCF
                               energy          per atom          (sec)   <-- SCF
------------------------------------------------------------------------ <-- SCF
Initial  -1.92466050E+003  0.00000000E+000                        66.28  <-- SCF
      1  -1.92466995E+003  6.33297945E+000   2.36083686E-003      68.08  <-- SCF
      2  -1.92466995E+003  6.33297945E+000   1.20587605E-008      70.11  <-- SCF
      3  -1.92466995E+003  6.33308404E+000   9.58302938E-009      72.13  <-- SCF
      4  -1.92466995E+003  6.33300336E+000  -1.65119636E-010      74.14  <-- SCF
------------------------------------------------------------------------ <-- SCF
 
Integrated Spin Density     =    0.741322E-05 hbar/2                        
Integrated |Spin Density|   =    0.738254E-04 hbar/2                        
 
Final energy, E             =  -1924.660521384     eV
Final free energy (E-TS)    =  -1924.669947920     eV
(energies not corrected for finite basis set)
 
NB est. 0K energy (E-0.5TS)      =  -1924.665234652     eV
 
Calculating total energy with cut-off of  600.000 eV.
------------------------------------------------------------------------ <-- SCF
SCF loop      Energy           Fermi           Energy gain       Timer   <-- SCF
                               energy          per atom          (sec)   <-- SCF
------------------------------------------------------------------------ <-- SCF
Initial  -1.92466052E+003  0.00000000E+000                        75.76  <-- SCF
      1  -1.92466996E+003  6.33299713E+000   2.36053110E-003      77.55  <-- SCF
      2  -1.92466996E+003  6.33299713E+000   2.36909942E-009      79.57  <-- SCF
      3  -1.92466996E+003  6.33302320E+000   8.83119366E-010      81.60  <-- SCF
      4  -1.92466996E+003  6.33300199E+000  -3.09357632E-011      83.62  <-- SCF
------------------------------------------------------------------------ <-- SCF
 
Integrated Spin Density     =    0.116171E-04 hbar/2                        
Integrated |Spin Density|   =    0.154572E-04 hbar/2                        
 
Final energy, E             =  -1924.660536980     eV
Final free energy (E-TS)    =  -1924.669963523     eV
(energies not corrected for finite basis set)
 
NB est. 0K energy (E-0.5TS)      =  -1924.665250252     eV
 
 For future reference: finite basis dEtot/dlog(Ecut) =      -0.001967eV
 Total energy corrected for finite basis set =   -1924.669964 eV

 ******************* Unconstrained Forces *******************
 *                                                          *
 *               Cartesian components (eV/A)                *
 * -------------------------------------------------------- *
 *                         x            y            z      *
 *                                                          *
 * Al              1     -0.00000      0.00000     -0.00000 *
 * Al              2      0.00133     -0.00165     -0.01529 *
 * Al              3     -0.00133      0.00165      0.01530 *
 * Ti              1      0.00000     -0.00000     -0.00000 *
 *                                                          *
 ************************************************************

 ******************** Constrained Forces ********************
 *                                                          *
 *               Cartesian components (eV/A)                *
 * -------------------------------------------------------- *
 *                         x            y            z      *
 *                                                          *
 * Al              1     -0.00000      0.00000     -0.00000 *
 * Al              2      0.00133     -0.00165     -0.01529 *
 * Al              3     -0.00133      0.00165      0.01530 *
 * Ti              1      0.00000     -0.00000     -0.00000 *
 *                                                          *
 ************************************************************

 ***************** Stress Tensor *****************
 *                                               *
 *          Cartesian components (GPa)           *
 * --------------------------------------------- *
 *             x             y             z     *
 *                                               *
 *  x     -0.030075      2.507702     -0.048200  *
 *  y      2.507702     -0.542872     -0.039269  *
 *  z     -0.048200     -0.039269      5.186740  *
 *                                               *
 *  Pressure:   -1.5379                          *
 *                                               *
 *************************************************

 Pseudo atomic calculation performed for Al 3s2 3p1

 Converged in 15 iterations to a total energy of -105.5952 eV


 Pseudo atomic calculation performed for Ti 3s2 3p6 3d2 4s2

 Converged in 31 iterations to a total energy of -1585.9998 eV

Charge spilling parameter for spin component 1 = 0.50%
Charge spilling parameter for spin component 2 = 0.50%

     Atomic Populations (Mulliken)
     -----------------------------
Species          Ion     s      p      d      f     Total  Charge (e)  Spin (hbar/2)
==================================================================================
  Al              1     1.03   1.86   0.00   0.00   2.89     0.11       -0.00
  Al              2     1.00   2.08   0.00   0.00   3.08    -0.08        0.00
  Al              3     1.00   2.08   0.00   0.00   3.08    -0.08       -0.00
  Ti              1     2.20   6.71   3.05   0.00  11.95     0.05        0.00
==================================================================================

                 Bond                   Population        Spin       Length (A)
================================================================================
              Al 2 -- Al 3                   1.65         0.00          2.64512
              Al 1 -- Ti 1                   1.40         0.00          2.64525
================================================================================

 
 A BibTeX formatted list of references used in this run has been written to 
 castep.bib
 
Initialisation time =     12.65 s
Calculation time    =     85.34 s
Finalisation time   =      0.11 s
Total time          =     98.10 s
Peak Memory Use     = 787152 kB
  
Overall parallel efficiency rating: Very good (86%)                             
  
Data was distributed by:-
k-point (48-way); efficiency rating: Very good (86%)                            
  
Parallel notes:
1) Calculation only took 98.0 s, so efficiency estimates may be inaccurate.     
