16
Lattice="5.717572 0.0 0.0 -2.858786 4.951563 0.0 0.0 0.0 9.056292" Properties=species:S:1:pos:R:3:initial_magmoms:R:1:force:R:3:initial_charges:R:1 virial="-0.004015037990498182 -0.004048735898268826 -0.0036992613192923705 1.1421961700366362e-06 -1.4417886080790327e-06 1.6028195435268205e-05" energy=-25498.479284 pbc="T T T"
Ti       0.00534021       0.00000000       0.00845858       0.00000000      -0.03587000       0.00018000      -0.06242000      -0.00000000 
Ti       2.85878600       0.00000000       0.00000000       0.00000000       0.01847000       0.00112000       0.00455000      -0.00000000 
Ti      -1.42939300       2.47578150       0.00000000       0.00000000       0.00552000      -0.00786000       0.00344000       0.00000000 
Ti       1.42939300       2.47578150       0.00000000       0.00000000       0.00681000       0.00624000       0.00256000       0.00000000 
Ti       0.00000000       0.00000000       4.52814600       0.00000000      -0.00334000       0.00063000       0.01988000      -0.00000000 
Ti       2.85878600       0.00000000       4.52814600       0.00000000       0.00349000       0.00110000      -0.00078000       0.00000000 
Ti      -1.42939300       2.47578150       4.52814600       0.00000000      -0.00041000      -0.00297000       0.00029000       0.00000000 
Ti       1.42939300       2.47578150       4.52814600       0.00000000       0.00053000       0.00091000       0.00139000      -0.00000000 
Ti       0.00000000       1.65052430       2.26407300       0.00000000       0.00046000       0.01078000       0.00699000       0.00000000 
Ti       2.85878600       1.65052430       2.26407300       0.00000000      -0.00430000      -0.00008000      -0.00738000      -0.00000000 
Ti      -1.42939586       4.12630085       2.26407300       0.00000000       0.01264000      -0.00679000       0.01151000       0.00000000 
Ti       1.42939586       4.12630085       2.26407300       0.00000000      -0.00603000      -0.00348000       0.00172000      -0.00000000 
Ti       0.00000000       1.65052430       6.79221900       0.00000000       0.00020000      -0.00795000       0.00780000      -0.01000000 
Ti       2.85878600       1.65052430       6.79221900       0.00000000      -0.00440000       0.00116000      -0.00586000      -0.00000000 
Ti      -1.42939586       4.12630085       6.79221900       0.00000000      -0.00465000       0.00196000       0.00347000       0.01000000 
Ti       1.42939586       4.12630085       6.79221900       0.00000000       0.01088000       0.00505000       0.01285000      -0.00000000 
