3
Lattice="3.996150415441499 -2.3071896603303452 7.349312650401658e-09 3.9961504300461947 2.30718968562642 -7.349312690604726e-09 -1.4182074922657075e-17 -8.980860083354897e-09 2.855715263359091" Properties=species:S:1:pos:R:3 energy=-4780.85206994 pbc="T T T" n_minim_iter=0
Ti       1.33205281      -0.00000000       0.00000000 
Ti       3.99615043       0.00000001       1.42785763 
Ti       6.66024804       0.00000002       1.42785763 
