3
Lattice="4.113751121549193 -2.375086787558286 7.565591885976415e-09 4.113751136583683 2.3750868135987857 -7.5655919273626e-09 -1.4599432091829704e-17 -9.245153309950138e-09 2.93975467541822" Properties=species:S:1:pos:R:3 energy=-4780.34277152 pbc="T T T" n_minim_iter=0
Ti       1.37125312      -0.00000000      -0.00000000 
Ti       4.11375113       0.00000001       1.46987733 
Ti       6.85624914       0.00000002       1.46987733 
