3
Lattice="3.6857267852716813 -2.1279598044099415 2.7410585151693815e-09 3.685726790376117 2.12795981325109 -2.7410405770161746e-09 6.409900587104099e-15 -3.1697870262874776e-09 2.6703539936034826" Properties=species:S:1:pos:R:3 energy=-4780.72249587 pbc="T T T" n_minim_iter=0
Ti       1.22857804      -0.00000000      -0.00000000 
Ti       3.68572680       0.00000000       1.33517699 
Ti       6.14287553       0.00000001       1.33517699 
