3
Lattice="4.055803246107924 -2.341630404500334 7.45902005814962e-09 4.055803260930633 2.341630430174017 -7.459020098952823e-09 -1.4393778894206992e-17 -9.114922535989589e-09 2.8983441640076832" Properties=species:S:1:pos:R:3 energy=-4780.63697676 pbc="T T T" n_minim_iter=0
Ti       1.35193712      -0.00000000       0.00000000 
Ti       4.05580326       0.00000001       1.44917208 
Ti       6.75966938       0.00000002       1.44917208 
