3
Lattice="3.650284909437453 -2.1074973850386787 2.7147005507274168e-09 3.6502849144928042 2.107497393794811 -2.7146827850671363e-09 6.34826310989724e-15 -3.1393064169662557e-09 2.644675922441799" Properties=species:S:1:pos:R:3 energy=-4780.56718506 pbc="T T T" n_minim_iter=0
Ti       1.21676405      -0.00000000      -0.00000000 
Ti       3.65028492       0.00000000       1.32233796 
Ti       6.08380576       0.00000001       1.32233796 
