3
Lattice="4.142122715486985 -2.3914672140626108 7.617770030581124e-09 4.1421227306251645 2.3914672402827053 -7.617770072252741e-09 -1.4700121012183197e-17 -9.30891500283149e-09 2.9600294862814214" Properties=species:S:1:pos:R:3 energy=-4780.17209838 pbc="T T T" n_minim_iter=0
Ti       1.38071034      -0.00000000      -0.00000000 
Ti       4.14212273       0.00000001       1.48001474 
Ti       6.90353511       0.00000002       1.48001474 
