3
Lattice="3.466811332637284 -2.0015653880218247 9.232363691140564e-10 3.4668113334554698 2.0015653894389724 -9.232517728959095e-10 -6.07035106996958e-15 -8.145543295773876e-10 2.5870726071844454" Properties=species:S:1:pos:R:3 stress="-0.2845174630383741 2.978701522498207e-10 9.693314922370955e-15 2.978701522498207e-10 -0.2845164733074657 -4.3012465048273153e-10 9.693314922370955e-15 -4.3012465048273153e-10 -0.2939502121272183" pbc="T T T" n_minim_iter=0
Ti       1.15560602      -0.00000000      -0.00000000 
Ti       3.46681137       0.00000000       1.29353630 
Ti       5.77801661       0.00000000       1.29353630 
