3
Lattice="3.788160077852162 -2.1870998172062404 2.81723769643332e-09 3.7881600830984596 2.187099826293101 -2.8172192597450335e-09 6.58804380294809e-15 -3.2578813807521114e-09 2.7445681629806846" Properties=species:S:1:pos:R:3 stress="-0.03897529639522188 1.0381103238475585e-09 -1.1892609978852617e-15 1.0381103238475585e-09 -0.03897387626959678 -9.98469270531929e-10 -1.1892609978852617e-15 -9.98469270531929e-10 -0.039217682252221685" pbc="T T T" n_minim_iter=0
Ti       1.26272254      -0.00000000      -0.00000000 
Ti       3.78816009       0.00000000       1.37228408 
Ti       6.31359761       0.00000001       1.37228408 
