3
Lattice="3.5608322452475343 -2.0558501517171215 1.6757881251397884e-09 3.5608322478171814 2.05585015616789 -1.675771783346016e-09 5.7475480931970265e-15 -1.7959283848143765e-09 2.615738714744739" Properties=species:S:1:pos:R:3 stress="-0.18028506387520038 9.542388660037893e-10 -1.742658798593472e-16 9.542388660037893e-10 -0.18028365804289376 -1.019287986226349e-09 -1.742658798593472e-16 -1.019287986226349e-09 -0.18436465694109078" pbc="T T T" n_minim_iter=0
Ti       1.18694642      -0.00000000      -0.00000000 
Ti       3.56083227       0.00000000       1.30786935 
Ti       5.93471805       0.00000001       1.30786935 
