3
Lattice="4.170110880129801 -2.40762626649117 7.66924301109661e-09 4.170110895370269 2.4076262928884327 -7.669243053049801e-09 -1.4799449167194155e-17 -9.371814985193456e-09 2.980030292220821" Properties=species:S:1:pos:R:3 energy=-4779.99349243 pbc="T T T" n_minim_iter=0
Ti       1.39003974      -0.00000000      -0.00000000 
Ti       4.17011089       0.00000001       1.49001514 
Ti       6.95018203       0.00000002       1.49001514 
