3
Lattice="3.511927322089518 -2.027613966461281 1.2019877354645532e-09 3.511927323489979 2.0276139688869588 -1.2019786446501471e-09 3.029996136776647e-15 -1.1771338789332925e-09 2.605063132202094" Properties=species:S:1:pos:R:3 stress="-0.21542452899456957 6.169651704313683e-10 2.6761154239577962e-15 6.169651704313683e-10 -0.2154234142295879 -7.2578269006327e-10 2.6761154239577962e-15 -7.2578269006327e-10 -0.22467691808738918" pbc="T T T" n_minim_iter=0
Ti       1.17064473      -0.00000000      -0.00000000 
Ti       3.51192736       0.00000000       1.30253156 
Ti       5.85320988       0.00000000       1.30253156 
