3
Lattice="3.7204998462925407 -2.1480360825606644 2.766919085027846e-09 3.720499851445134 2.148036091485225 -2.7669009776367837e-09 6.470374918827139e-15 -3.199692443620276e-09 2.695547500278456" Properties=species:S:1:pos:R:3 energy=-4780.84990375 pbc="T T T" n_minim_iter=0
Ti       1.24016908      -0.00000000      -0.00000000 
Ti       3.72049986       0.00000000       1.34777375 
Ti       6.20083061       0.00000001       1.34777375 
