3
Lattice="3.6141411006927844 -2.086629703664606 2.6878205619213763e-09 3.6141411056980797 2.0866297123340383 -2.6878029721702762e-09 6.285404891046504e-15 -3.10822213353611e-09 2.618489292328289" Properties=species:S:1:pos:R:3 energy=-4780.3886902 pbc="T T T" n_minim_iter=0
Ti       1.20471609      -0.00000000      -0.00000000 
Ti       3.61414112       0.00000000       1.30924464 
Ti       6.02356610       0.00000001       1.30924464 
