3
Lattice="3.7546347791313965 -2.167743936462799 2.792305081813222e-09 3.754634784331264 2.167743945469241 -2.792286808290026e-09 6.529739472629358e-15 -3.2290490599837497e-09 2.720278675305285" Properties=species:S:1:pos:R:3 energy=-4780.94541121 pbc="T T T" n_minim_iter=0
Ti       1.25154741      -0.00000000      -0.00000000 
Ti       3.75463479       0.00000000       1.36013933 
Ti       6.25772214       0.00000001       1.36013933 
