216
Lattice="17.25254361 0.0 0.0 -8.626271804999996 14.94114104615889 0.0 0.0 0.0 13.96584615" Properties=species:S:1:pos:R:3:forces:R:3 pbc="T T T"
Ti       2.86765138       3.28996953       1.15752866       0.04333772       0.16423967       0.03558534 
Ti       8.62627181       3.28996953       1.16382051      -0.00023768       0.16426244       0.00001110 
Ti      14.37711968       3.28996953       1.16382051      -0.00023408       0.16423178       0.00001193 
Ti       0.00000000       8.27034988       1.16382051      -0.00006776       0.16449056       0.00004373 
Ti       5.75084788       8.27034988       1.16382051      -0.00006847       0.16400520       0.00004193 
Ti      11.50169575       8.27034988       1.16382051      -0.00000738       0.16424720       0.00000003 
Ti      -2.87542393      13.25073023       1.16382051      -0.00006847       0.16442251       0.00004267 
Ti       2.87542394      13.25073023       1.16382051      -0.00000738       0.16424722       0.00000003 
Ti       8.62627181      13.25073023       1.16382051      -0.00006776       0.16407185       0.00004299 
Ti       2.87542394       3.28996953       5.81910256       0.00012777       0.16436155      -0.00002479 
Ti       8.62627181       3.28996953       5.81910256      -0.00001902       0.16426339      -0.00001085 
Ti      14.37711968       3.28996953       5.81910256      -0.00000813       0.16424381       0.00000275 
Ti       0.00000000       8.27034988       5.81910256      -0.00001318       0.16425323       0.00001097 
Ti       5.75084788       8.27034988       5.81910256      -0.00000842       0.16421113      -0.00004059 
Ti      11.50169575       8.27034988       5.81910256      -0.00000835       0.16424721       0.00000003 
Ti      -2.87542393      13.25073023       5.81910256      -0.00003199       0.16425695      -0.00001225 
Ti       2.87542394      13.25073023       5.81910256      -0.00000835       0.16424721       0.00000003 
Ti       8.62627181      13.25073023       5.81910256       0.00001037       0.16427277      -0.00001808 
Ti       2.87542394       3.28996953      10.47438461       0.00012696       0.16413125      -0.00001475 
Ti       8.62627181       3.28996953      10.47438461      -0.00000811       0.16425062       0.00000268 
Ti      14.37711968       3.28996953      10.47438461      -0.00001982       0.16423070      -0.00001163 
Ti       0.00000000       8.27034988      10.47438461      -0.00000859       0.16428463      -0.00004219 
Ti       5.75084788       8.27034988      10.47438461      -0.00001318       0.16424112       0.00001102 
Ti      11.50169575       8.27034988      10.47438461      -0.00000835       0.16424721       0.00000003 
Ti      -2.87542393      13.25073023      10.47438461       0.00001035       0.16422161      -0.00001809 
Ti       2.87542394      13.25073023      10.47438461      -0.00000835       0.16424721       0.00000003 
Ti       8.62627181      13.25073023      10.47438461      -0.00003210       0.16423745      -0.00001237 
Ti      -1.41148523       4.13517494       3.49146154      -0.14231342       0.08214251       0.00016384 
Ti       4.33936264       4.13517494       3.49146154      -0.14845511       0.07908074      -0.00951790 
Ti      10.09021051       4.13517494       3.49146154      -0.14229590       0.08212021      -0.00002066 
Ti      -4.28690916       9.11555529       3.49146154      -0.14224671       0.08212552      -0.00000033 
Ti       1.46393871       9.11555529       3.49146154      -0.14221808       0.08211551       0.00001148 
Ti       7.21478658       9.11555529       3.49146154      -0.14227126       0.08208827      -0.00000106 
Ti      -7.16233310      14.09593564       3.49146154      -0.14211479       0.08207867       0.00011252 
Ti      -1.41148523      14.09593564       3.49146154      -0.14238341       0.08228611      -0.00006876 
Ti       4.33936264      14.09593564       3.49146154      -0.14224393       0.08212792      -0.00000187 
Ti      -1.41148523       4.13517494       8.14674359      -0.14224680       0.08212624       0.00000274 
Ti       4.33936264       4.13517494       8.14674359      -0.14224684       0.08212583      -0.00008882 
Ti      10.09021051       4.13517494       8.14674359      -0.14224676       0.08212623      -0.00000003 
Ti      -4.28690916       9.11555529       8.14674359      -0.14224676       0.08212623      -0.00000003 
Ti       1.46393871       9.11555529       8.14674359      -0.14224676       0.08212623      -0.00000003 
Ti       7.21478658       9.11555529       8.14674359      -0.14224676       0.08212623      -0.00000003 
Ti      -7.16233310      14.09593564       8.14674359      -0.14224675       0.08212622       0.00000271 
Ti      -1.41148523      14.09593564       8.14674359      -0.14224676       0.08212623      -0.00000003 
Ti       4.33936264      14.09593564       8.14674359      -0.14224676       0.08212623      -0.00000003 
Ti      -1.41148523       4.13517494      12.80202564      -0.14291902       0.08226058      -0.00018383 
Ti       4.33936264       4.13517494      12.80202564      -0.14083773       0.08252827      -0.00112975 
Ti      10.09021051       4.13517494      12.80202564      -0.14229001       0.08211830       0.00002030 
Ti      -4.28690916       9.11555529      12.80202564      -0.14224799       0.08212680       0.00000027 
Ti       1.46393871       9.11555529      12.80202564      -0.14223982       0.08225045      -0.00002013 
Ti       7.21478658       9.11555529      12.80202564      -0.14225567       0.08211670       0.00000069 
Ti      -7.16233310      14.09593564      12.80202564      -0.14218157       0.08178580      -0.00013537 
Ti      -1.41148523      14.09593564      12.80202564      -0.14227799       0.08219578       0.00006022 
Ti       4.33936264      14.09593564      12.80202564      -0.14224104       0.08212963       0.00000179 
Ti       1.41148523       4.13517494       3.49146154       0.14365888       0.08170275      -0.00116784 
Ti       7.16233310       4.13517494       3.49146154       0.14155757       0.08197685      -0.00019695 
Ti      12.91318097       4.13517494       3.49146154       0.14220284       0.08212441       0.00002039 
Ti      -1.46393870       9.11555529       3.49146154       0.14223746       0.08212585       0.00000066 
Ti       4.28690917       9.11555529       3.49146154       0.14225236       0.08199396      -0.00002019 
Ti      10.03775704       9.11555529       3.49146154       0.14224519       0.08211585       0.00000026 
Ti      -4.33936264      14.09593564       3.49146154       0.14230807       0.08246156      -0.00013808 
Ti       1.41148523      14.09593564       3.49146154       0.14225200       0.08211305       0.00000174 
Ti       7.16233310      14.09593564       3.49146154       0.14221511       0.08204647       0.00006071 
Ti       1.41148523       4.13517494       8.14674359       0.14224602       0.08211695      -0.00008998 
Ti       7.16233310       4.13517494       8.14674359       0.14224631       0.08211639       0.00000266 
Ti      12.91318097       4.13517494       8.14674359       0.14224637       0.08211640      -0.00000003 
Ti      -1.46393870       9.11555529       8.14674359       0.14224637       0.08211640      -0.00000003 
Ti       4.28690917       9.11555529       8.14674359       0.14224637       0.08211640      -0.00000003 
Ti      10.03775704       9.11555529       8.14674359       0.14224637       0.08211640      -0.00000003 
Ti      -4.33936264      14.09593564       8.14674359       0.14224636       0.08211643       0.00000269 
Ti       1.41148523      14.09593564       8.14674359       0.14224637       0.08211640      -0.00000003 
Ti       7.16233310      14.09593564       8.14674359       0.14224637       0.08211640      -0.00000003 
Ti       1.41148523       4.13517494      12.80202564       0.13589170       0.08528115      -0.00979914 
Ti       7.16233310       4.13517494      12.80202564       0.14217375       0.08209772       0.00016914 
Ti      12.91318097       4.13517494      12.80202564       0.14219645       0.08212246      -0.00002078 
Ti      -1.46393870       9.11555529      12.80202564       0.14222100       0.08215569      -0.00000103 
Ti       4.28690917       9.11555529      12.80202564       0.14227502       0.08212685       0.00001160 
Ti      10.03775704       9.11555529      12.80202564       0.14224641       0.08211711      -0.00000032 
Ti      -4.33936264      14.09593564      12.80202564       0.14237761       0.08216588       0.00011309 
Ti       1.41148523      14.09593564      12.80202564       0.14224914       0.08211474      -0.00000181 
Ti       7.16233310      14.09593564      12.80202564       0.14210884       0.08195533      -0.00006941 
Ti       1.46393871       0.84520541       1.16382051      -0.14471744      -0.08712069       0.00019300 
Ti       7.21478658       0.84520541       1.16382051      -0.14267159      -0.08187454       0.00012855 
Ti      12.96563445       0.84520541       1.16382051      -0.14230316      -0.08214354      -0.00000190 
Ti      -1.41148522       5.82558576       1.16382051      -0.14267350      -0.08188890       0.00013123 
Ti       4.33936264       5.82558576       1.16382051      -0.14440301      -0.08597685       0.00050107 
Ti      10.09021051       5.82558576       1.16382051      -0.14228816      -0.08213514      -0.00000094 
Ti      -4.28690916      10.80596611       1.16382051      -0.14224676      -0.08211100      -0.00000187 
Ti       1.46393871      10.80596611       1.16382051      -0.14224584      -0.08211065      -0.00000096 
Ti       7.21478658      10.80596611       1.16382051      -0.14224667      -0.08211653       0.00000027 
Ti       1.46393871       0.84520541       5.81910256      -0.14216652      -0.08203951      -0.00005247 
Ti       7.21478658       0.84520541       5.81910256      -0.14233184      -0.08207423      -0.00009129 
Ti      12.96563445       0.84520541       5.81910256      -0.14224533      -0.08211596      -0.00000062 
Ti      -1.41148522       5.82558576       5.81910256      -0.14224679      -0.08211870       0.00000876 
Ti       4.33936264       5.82558576       5.81910256      -0.14231899      -0.08235968      -0.00043323 
Ti      10.09021051       5.82558576       5.81910256      -0.14224423      -0.08211412       0.00000212 
Ti      -4.28690916      10.80596611       5.81910256      -0.14224635      -0.08211869       0.00000167 
Ti       1.46393871      10.80596611       5.81910256      -0.14224686      -0.08211458       0.00000105 
Ti       7.21478658      10.80596611       5.81910256      -0.14224689      -0.08211766      -0.00000061 
Ti       1.46393871       0.84520541      10.47438461      -0.14225472      -0.08230263      -0.00027686 
Ti       7.21478658       0.84520541      10.47438461      -0.14222719      -0.08211842      -0.00000305 
Ti      12.96563445       0.84520541      10.47438461      -0.14224153      -0.08211487       0.00000283 
Ti      -1.41148522       5.82558576      10.47438461      -0.14233168      -0.08208397      -0.00010515 
Ti       4.33936264       5.82558576      10.47438461      -0.14209879      -0.08197676      -0.00016010 
Ti      10.09021051       5.82558576      10.47438461      -0.14224532      -0.08211554      -0.00000092 
Ti      -4.28690916      10.80596611      10.47438461      -0.14224673      -0.08211572       0.00000051 
Ti       1.46393871      10.80596611      10.47438461      -0.14224546      -0.08211664       0.00000017 
Ti       7.21478658      10.80596611      10.47438461      -0.14224618      -0.08211628       0.00000044 
Ti       4.28690916       0.84520541       1.16382051       0.13976122      -0.07715378       0.00016277 
Ti      10.03775703       0.84520541       1.16382051       0.14219073      -0.08209926      -0.00000187 
Ti      15.78860490       0.84520541       1.16382051       0.14183155      -0.08235991       0.00013007 
Ti       1.41148523       5.82558576       1.16382051       0.14008938      -0.07822942       0.00052366 
Ti       7.16233310       5.82558576       1.16382051       0.14181155      -0.08236163       0.00012739 
Ti      12.91318097       5.82558576       1.16382051       0.14220464      -0.08210742      -0.00000101 
Ti      -1.46393871      10.80596611       1.16382051       0.14224652      -0.08212605       0.00000031 
Ti       4.28690916      10.80596611       1.16382051       0.14224731      -0.08213199      -0.00000099 
Ti      10.03775703      10.80596611       1.16382051       0.14224653      -0.08213150      -0.00000190 
Ti       4.28690916       0.84520541       5.81910256       0.14223671      -0.08194143      -0.00027686 
Ti      10.03775703       0.84520541       5.81910256       0.14225163      -0.08212772       0.00000280 
Ti      15.78860490       0.84520541       5.81910256       0.14226617      -0.08212408      -0.00000328 
Ti       1.41148523       5.82558576       5.81910256       0.14239289      -0.08226533      -0.00015997 
Ti       7.16233310       5.82558576       5.81910256       0.14216367      -0.08215794      -0.00010211 
Ti      12.91318097       5.82558576       5.81910256       0.14224791      -0.08212710      -0.00000094 
Ti      -1.46393871      10.80596611       5.81910256       0.14224703      -0.08212634       0.00000043 
Ti       4.28690916      10.80596611       5.81910256       0.14224774      -0.08212594       0.00000020 
Ti      10.03775703      10.80596611       5.81910256       0.14224649      -0.08212691       0.00000051 
Ti       4.28690916       0.84520541      10.47438461       0.14232585      -0.08220260      -0.00004990 
Ti      10.03775703       0.84520541      10.47438461       0.14224789      -0.08212666      -0.00000062 
Ti      15.78860490       0.84520541      10.47438461       0.14216070      -0.08216885      -0.00009193 
Ti       1.41148523       5.82558576      10.47438461       0.14217486      -0.08188331      -0.00043450 
Ti       7.16233310       5.82558576      10.47438461       0.14224621      -0.08212398       0.00000894 
Ti      12.91318097       5.82558576      10.47438461       0.14224908      -0.08212860       0.00000221 
Ti      -1.46393871      10.80596611      10.47438461       0.14224631      -0.08212492      -0.00000064 
Ti       4.28690916      10.80596611      10.47438461       0.14224636      -0.08212805       0.00000105 
Ti      10.03775703      10.80596611      10.47438461       0.14224686      -0.08212389       0.00000170 
Ti       0.00000000       1.69041082       3.49146154       0.00029081      -0.16396468      -0.00032358 
Ti       5.75084787       1.69041082       3.49146154       0.00160776      -0.16508168       0.00130021 
Ti      11.50169574       1.69041082       3.49146154       0.00001042      -0.16424746      -0.00000004 
Ti      -2.87542393       6.67079117       3.49146154      -0.00004155      -0.16420667       0.00003341 
Ti       2.87542394       6.67079117       3.49146154       0.00029931      -0.16396994       0.00037417 
Ti       8.62627180       6.67079117       3.49146154      -0.00009441      -0.16430292      -0.00003378 
Ti      -5.75084787      11.65117152       3.49146154       0.00001741      -0.16419576      -0.00000094 
Ti       0.00000000      11.65117152       3.49146154       0.00000888      -0.16424765       0.00000025 
Ti       5.75084787      11.65117152       3.49146154       0.00000842      -0.16424802      -0.00000032 
Ti       0.00000000       1.69041082       8.14674359       0.00000807      -0.16424736       0.00001512 
Ti       5.75084787       1.69041082       8.14674359       0.00000797      -0.16424699       0.00001506 
Ti      11.50169574       1.69041082       8.14674359       0.00000831      -0.16424720      -0.00000003 
Ti      -2.87542393       6.67079117       8.14674359       0.00000831      -0.16424720      -0.00000003 
Ti       2.87542394       6.67079117       8.14674359       0.00000837      -0.16424726       0.00001392 
Ti       8.62627180       6.67079117       8.14674359       0.00000831      -0.16424720      -0.00000003 
Ti      -5.75084787      11.65117152       8.14674359       0.00000831      -0.16424720      -0.00000003 
Ti       0.00000000      11.65117152       8.14674359       0.00000831      -0.16424720      -0.00000003 
Ti       5.75084787      11.65117152       8.14674359       0.00000831      -0.16424720      -0.00000003 
Ti       0.00000000       1.69041082      12.80202564       0.00162152      -0.16339821       0.00131370 
Ti       5.75084787       1.69041082      12.80202564       0.00029875      -0.16453071      -0.00032356 
Ti      11.50169574       1.69041082      12.80202564       0.00001045      -0.16424693      -0.00000002 
Ti      -2.87542393       6.67079117      12.80202564      -0.00009715      -0.16419041      -0.00003424 
Ti       2.87542394       6.67079117      12.80202564       0.00029867      -0.16451865       0.00036862 
Ti       8.62627180       6.67079117      12.80202564      -0.00004120      -0.16428737       0.00003299 
Ti      -5.75084787      11.65117152      12.80202564       0.00001754      -0.16429879      -0.00000085 
Ti       0.00000000      11.65117152      12.80202564       0.00000842      -0.16424632      -0.00000031 
Ti       5.75084787      11.65117152      12.80202564       0.00000889      -0.16424674       0.00000026 
Al      -0.00000288       3.32025523       1.16382051      -0.01198684       0.00009449       0.00007963 
Al       5.75084499       3.32025523       1.16382051      -0.01153102      -0.00011202       0.00002873 
Al      11.50169286       3.32025523       1.16382051       0.00001766      -0.00001104       0.00000022 
Al      -2.87542681       8.30063558       1.16382051      -0.00000580       0.00000977       0.00000423 
Al       2.87542106       8.30063558       1.16382051       0.00014332      -0.00001096       0.00008958 
Al       8.62626893       8.30063558       1.16382051      -0.00000544      -0.00003145       0.00000404 
Al      -5.75085075      13.28101593       1.16382051       0.00014286      -0.00001108       0.00018670 
Al      -0.00000288      13.28101593       1.16382051       0.00000098       0.00000696       0.00000132 
Al       5.75084499      13.28101593       1.16382051       0.00000082      -0.00002932       0.00000135 
Al      -0.00000288       3.32025523       5.81910256       0.00017284      -0.00004823      -0.00000938 
Al       5.75084499       3.32025523       5.81910256      -0.00017723      -0.00003406      -0.00036861 
Al      11.50169286       3.32025523       5.81910256       0.00001875      -0.00001100      -0.00000005 
Al      -2.87542681       8.30063558       5.81910256       0.00001781      -0.00001018       0.00000115 
Al       2.87542106       8.30063558       5.81910256       0.00003379      -0.00005508      -0.00003908 
Al       8.62626893       8.30063558       5.81910256       0.00001292      -0.00001484      -0.00000507 
Al      -5.75085075      13.28101593       5.81910256       0.00002564       0.00010057      -0.00008469 
Al      -0.00000288      13.28101593       5.81910256       0.00001711      -0.00000881      -0.00000157 
Al       5.75084499      13.28101593       5.81910256       0.00001877      -0.00001149       0.00000034 
Al      -0.00000288       3.32025523      10.47438461      -0.00017737       0.00001142      -0.00037054 
Al       5.75084499       3.32025523      10.47438461       0.00017303       0.00002623      -0.00000959 
Al      11.50169286       3.32025523      10.47438461       0.00001874      -0.00001107      -0.00000006 
Al      -2.87542681       8.30063558      10.47438461       0.00001269      -0.00000709      -0.00000526 
Al       2.87542106       8.30063558      10.47438461       0.00003417       0.00003332      -0.00003929 
Al       8.62626893       8.30063558      10.47438461       0.00001780      -0.00001189       0.00000115 
Al      -5.75085075      13.28101593      10.47438461       0.00002578      -0.00012277      -0.00008485 
Al      -0.00000288      13.28101593      10.47438461       0.00001876      -0.00001058       0.00000035 
Al       5.75084499      13.28101593      10.47438461       0.00001707      -0.00001329      -0.00000159 
Al       2.87542681       1.66012512       3.49146154       0.00020034       0.00534403      -0.00749241 
Al       8.62627468       1.66012512       3.49146154      -0.00026661       0.00011426      -0.00012291 
Al      14.37712255       1.66012512       3.49146154      -0.00018166      -0.00006438       0.00012407 
Al       0.00000288       6.64050547       3.49146154      -0.00000685       0.00021199       0.00022684 
Al       5.75085075       6.64050547       3.49146154      -0.00034764      -0.00060342      -0.00033170 
Al      11.50169861       6.64050547       3.49146154      -0.00001977       0.00001094      -0.00000003 
Al      -2.87542106      11.62088582       3.49146154      -0.00002775       0.00003340      -0.00000645 
Al       2.87542681      11.62088582       3.49146154      -0.00001909       0.00000968      -0.00000004 
Al       8.62627468      11.62088582       3.49146154      -0.00002216       0.00000014       0.00000641 
Al       2.87542681       1.66012512       8.14674359      -0.00001912       0.00001091      -0.00015298 
Al       8.62627468       1.66012512       8.14674359      -0.00001909       0.00001103      -0.00000004 
Al      14.37712255       1.66012512       8.14674359      -0.00001909       0.00001103      -0.00000004 
Al       0.00000288       6.64050547       8.14674359      -0.00001910       0.00001103      -0.00000284 
Al       5.75085075       6.64050547       8.14674359      -0.00001909       0.00001103      -0.00000274 
Al      11.50169861       6.64050547       8.14674359      -0.00001909       0.00001103      -0.00000004 
Al      -2.87542106      11.62088582       8.14674359      -0.00001909       0.00001103      -0.00000004 
Al       2.87542681      11.62088582       8.14674359      -0.00001909       0.00001103      -0.00000004 
Al       8.62627468      11.62088582       8.14674359      -0.00001909       0.00001103      -0.00000004 
Al       2.87542681       1.66012512      12.80202564       0.00025062      -0.00545049      -0.00763428 
Al       8.62627468       1.66012512      12.80202564      -0.00018091       0.00008604       0.00012313 
Al      14.37712255       1.66012512      12.80202564      -0.00026839      -0.00009338      -0.00012384 
Al       0.00000288       6.64050547      12.80202564      -0.00034314       0.00062443      -0.00032894 
Al       5.75085075       6.64050547      12.80202564      -0.00000761      -0.00018936       0.00022593 
Al      11.50169861       6.64050547      12.80202564      -0.00001978       0.00001112      -0.00000004 
Al      -2.87542106      11.62088582      12.80202564      -0.00002220       0.00002197       0.00000643 
Al       2.87542681      11.62088582      12.80202564      -0.00001909       0.00001236      -0.00000003 
Al       8.62627468      11.62088582      12.80202564      -0.00002780      -0.00001150      -0.00000643 
