216
Lattice="17.25254361 0.0 0.0 -8.626271804999996 14.94114104615889 0.0 0.0 0.0 13.96584615" Properties=species:S:1:pos:R:3:forces:R:3 pbc="T T T"
Ti       2.87042394       3.29862978       1.16382051       0.02797490       0.11457224       0.00000003 
Ti       8.62627181       3.28996953       1.16382051      -0.00013841       0.16423171       0.00000003 
Ti      14.37711968       3.28996953       1.16382051      -0.00017120       0.16421102       0.00000003 
Ti       0.00000000       8.27034988       1.16382051      -0.00024330       0.16471042       0.00000003 
Ti       5.75084788       8.27034988       1.16382051       0.00014980       0.16439596       0.00000003 
Ti      11.50169575       8.27034988       1.16382051      -0.00000772       0.16424871       0.00000003 
Ti      -2.87542393      13.25073023       1.16382051      -0.00031570       0.16466430       0.00000003 
Ti       2.87542394      13.25073023       1.16382051      -0.00000774       0.16424880       0.00000003 
Ti       8.62627181      13.25073023       1.16382051       0.00022215       0.16443962       0.00000003 
Ti       2.87542394       3.28996953       5.81910256       0.00007900       0.16413730       0.00015951 
Ti       8.62627181       3.28996953       5.81910256      -0.00000086       0.16425476       0.00000443 
Ti      14.37711968       3.28996953       5.81910256      -0.00002299       0.16424201       0.00001357 
Ti       0.00000000       8.27034988       5.81910256      -0.00000114       0.16428179       0.00004218 
Ti       5.75084788       8.27034988       5.81910256      -0.00001880       0.16425355       0.00000753 
Ti      11.50169575       8.27034988       5.81910256      -0.00000835       0.16424721       0.00000003 
Ti      -2.87542393      13.25073023       5.81910256      -0.00003366       0.16426212      -0.00001902 
Ti       2.87542394      13.25073023       5.81910256      -0.00000835       0.16424721       0.00000003 
Ti       8.62627181      13.25073023       5.81910256       0.00001385       0.16427234      -0.00002286 
Ti       2.87542394       3.28996953      10.47438461       0.00007900       0.16413730      -0.00015945 
Ti       8.62627181       3.28996953      10.47438461      -0.00000086       0.16425476      -0.00000438 
Ti      14.37711968       3.28996953      10.47438461      -0.00002299       0.16424201      -0.00001351 
Ti       0.00000000       8.27034988      10.47438461      -0.00000114       0.16428179      -0.00004213 
Ti       5.75084788       8.27034988      10.47438461      -0.00001880       0.16425355      -0.00000748 
Ti      11.50169575       8.27034988      10.47438461      -0.00000835       0.16424721       0.00000003 
Ti      -2.87542393      13.25073023      10.47438461      -0.00003366       0.16426212       0.00001907 
Ti       2.87542394      13.25073023      10.47438461      -0.00000835       0.16424721       0.00000003 
Ti       8.62627181      13.25073023      10.47438461       0.00001385       0.16427234       0.00002291 
Ti      -1.41148523       4.13517494       3.49146154      -0.14261282       0.08201172       0.00017404 
Ti       4.33936264       4.13517494       3.49146154      -0.14151400       0.08176746       0.00062717 
Ti      10.09021051       4.13517494       3.49146154      -0.14227299       0.08212299      -0.00001371 
Ti      -4.28690916       9.11555529       3.49146154      -0.14224875       0.08212770      -0.00000139 
Ti       1.46393871       9.11555529       3.49146154      -0.14229387       0.08236651       0.00010609 
Ti       7.21478658       9.11555529       3.49146154      -0.14223490       0.08214504       0.00000378 
Ti      -7.16233310      14.09593564       3.49146154      -0.14200754       0.08236880      -0.00032454 
Ti      -1.41148523      14.09593564       3.49146154      -0.14242316       0.08228741      -0.00009993 
Ti       4.33936264      14.09593564       3.49146154      -0.14224667       0.08212627      -0.00000005 
Ti      -1.41148523       4.13517494       8.14674359      -0.14224681       0.08212624      -0.00000003 
Ti       4.33936264       4.13517494       8.14674359      -0.14224629       0.08212547      -0.00000003 
Ti      10.09021051       4.13517494       8.14674359      -0.14224676       0.08212623      -0.00000003 
Ti      -4.28690916       9.11555529       8.14674359      -0.14224676       0.08212623      -0.00000003 
Ti       1.46393871       9.11555529       8.14674359      -0.14224676       0.08212623      -0.00000003 
Ti       7.21478658       9.11555529       8.14674359      -0.14224676       0.08212623      -0.00000003 
Ti      -7.16233310      14.09593564       8.14674359      -0.14224674       0.08212627      -0.00000003 
Ti      -1.41148523      14.09593564       8.14674359      -0.14224676       0.08212623      -0.00000003 
Ti       4.33936264      14.09593564       8.14674359      -0.14224676       0.08212623      -0.00000003 
Ti      -1.41148523       4.13517494      12.80202564      -0.14261282       0.08201172      -0.00017409 
Ti       4.33936264       4.13517494      12.80202564      -0.14151400       0.08176746      -0.00062723 
Ti      10.09021051       4.13517494      12.80202564      -0.14227299       0.08212299       0.00001366 
Ti      -4.28690916       9.11555529      12.80202564      -0.14224875       0.08212770       0.00000133 
Ti       1.46393871       9.11555529      12.80202564      -0.14229387       0.08236651      -0.00010614 
Ti       7.21478658       9.11555529      12.80202564      -0.14223490       0.08214504      -0.00000384 
Ti      -7.16233310      14.09593564      12.80202564      -0.14200754       0.08236880       0.00032449 
Ti      -1.41148523      14.09593564      12.80202564      -0.14242316       0.08228741       0.00009987 
Ti       4.33936264      14.09593564      12.80202564      -0.14224667       0.08212627      -0.00000000 
Ti       1.41148523       4.13517494       3.49146154       0.13835702       0.08348964       0.00616223 
Ti       7.16233310       4.13517494       3.49146154       0.14213092       0.08190525      -0.00005508 
Ti      12.91318097       4.13517494       3.49146154       0.14221275       0.08212220       0.00001267 
Ti      -1.46393870       9.11555529       3.49146154       0.14221207       0.08216715       0.00000494 
Ti       4.28690917       9.11555529       3.49146154       0.14231677       0.08228254       0.00008531 
Ti      10.03775704       9.11555529       3.49146154       0.14224759       0.08211795      -0.00000100 
Ti      -4.33936264      14.09593564       3.49146154       0.14212999       0.08261401      -0.00048732 
Ti       1.41148523      14.09593564       3.49146154       0.14225167       0.08211323       0.00000222 
Ti       7.16233310      14.09593564       3.49146154       0.14231573       0.08213052      -0.00001759 
Ti       1.41148523       4.13517494       8.14674359       0.14224562       0.08211625      -0.00000003 
Ti       7.16233310       4.13517494       8.14674359       0.14224636       0.08211640      -0.00000003 
Ti      12.91318097       4.13517494       8.14674359       0.14224637       0.08211640      -0.00000003 
Ti      -1.46393870       9.11555529       8.14674359       0.14224637       0.08211640      -0.00000003 
Ti       4.28690917       9.11555529       8.14674359       0.14224637       0.08211640      -0.00000003 
Ti      10.03775704       9.11555529       8.14674359       0.14224637       0.08211640      -0.00000003 
Ti      -4.33936264      14.09593564       8.14674359       0.14224635       0.08211646      -0.00000003 
Ti       1.41148523      14.09593564       8.14674359       0.14224637       0.08211640      -0.00000003 
Ti       7.16233310      14.09593564       8.14674359       0.14224637       0.08211640      -0.00000003 
Ti       1.41148523       4.13517494      12.80202564       0.13835702       0.08348964      -0.00616229 
Ti       7.16233310       4.13517494      12.80202564       0.14213092       0.08190525       0.00005503 
Ti      12.91318097       4.13517494      12.80202564       0.14221275       0.08212220      -0.00001273 
Ti      -1.46393870       9.11555529      12.80202564       0.14221207       0.08216715      -0.00000500 
Ti       4.28690917       9.11555529      12.80202564       0.14231677       0.08228254      -0.00008536 
Ti      10.03775704       9.11555529      12.80202564       0.14224759       0.08211795       0.00000094 
Ti      -4.33936264      14.09593564      12.80202564       0.14212999       0.08261401       0.00048727 
Ti       1.41148523      14.09593564      12.80202564       0.14225167       0.08211323      -0.00000227 
Ti       7.16233310      14.09593564      12.80202564       0.14231573       0.08213052       0.00001753 
Ti       1.46393871       0.84520541       1.16382051      -0.13810501      -0.07604098       0.00000003 
Ti       7.21478658       0.84520541       1.16382051      -0.14298781      -0.08189660       0.00000003 
Ti      12.96563445       0.84520541       1.16382051      -0.14227817      -0.08213428       0.00000003 
Ti      -1.41148522       5.82558576       1.16382051      -0.14297804      -0.08192207       0.00000003 
Ti       4.33936264       5.82558576       1.16382051      -0.13824574      -0.07659943       0.00000003 
Ti      10.09021051       5.82558576       1.16382051      -0.14226670      -0.08212891       0.00000003 
Ti      -4.28690916      10.80596611       1.16382051      -0.14227760      -0.08205210       0.00000003 
Ti       1.46393871      10.80596611       1.16382051      -0.14226721      -0.08206452       0.00000003 
Ti       7.21478658      10.80596611       1.16382051      -0.14224332      -0.08211420       0.00000003 
Ti       1.46393871       0.84520541       5.81910256      -0.14220742      -0.08214600      -0.00007143 
Ti       7.21478658       0.84520541       5.81910256      -0.14230935      -0.08208988      -0.00006646 
Ti      12.96563445       0.84520541       5.81910256      -0.14224604      -0.08211599      -0.00000027 
Ti      -1.41148522       5.82558576       5.81910256      -0.14231011      -0.08210356       0.00008468 
Ti       4.33936264       5.82558576       5.81910256      -0.14216573      -0.08212572       0.00017410 
Ti      10.09021051       5.82558576       5.81910256      -0.14224486      -0.08211588       0.00000114 
Ti      -4.28690916      10.80596611       5.81910256      -0.14224604      -0.08212052       0.00000297 
Ti       1.46393871      10.80596611       5.81910256      -0.14224485      -0.08211796      -0.00000085 
Ti       7.21478658      10.80596611       5.81910256      -0.14224660      -0.08211631       0.00000059 
Ti       1.46393871       0.84520541      10.47438461      -0.14220742      -0.08214600       0.00007148 
Ti       7.21478658       0.84520541      10.47438461      -0.14230935      -0.08208988       0.00006651 
Ti      12.96563445       0.84520541      10.47438461      -0.14224604      -0.08211599       0.00000033 
Ti      -1.41148522       5.82558576      10.47438461      -0.14231011      -0.08210356      -0.00008463 
Ti       4.33936264       5.82558576      10.47438461      -0.14216573      -0.08212572      -0.00017404 
Ti      10.09021051       5.82558576      10.47438461      -0.14224486      -0.08211588      -0.00000108 
Ti      -4.28690916      10.80596611      10.47438461      -0.14224604      -0.08212052      -0.00000291 
Ti       1.46393871      10.80596611      10.47438461      -0.14224485      -0.08211796       0.00000091 
Ti       7.21478658      10.80596611      10.47438461      -0.14224660      -0.08211631      -0.00000054 
Ti       4.28690916       0.84520541       1.16382051       0.13498495      -0.06979947       0.00000003 
Ti      10.03775703       0.84520541       1.16382051       0.14220630      -0.08210931       0.00000003 
Ti      15.78860490       0.84520541       1.16382051       0.14244291      -0.08221572       0.00000003 
Ti       1.41148523       5.82558576       1.16382051       0.13540415      -0.07146233       0.00000003 
Ti       7.16233310       5.82558576       1.16382051       0.14242729      -0.08222556       0.00000003 
Ti      12.91318097       5.82558576       1.16382051       0.14221285      -0.08211461       0.00000003 
Ti      -1.46393871      10.80596611       1.16382051       0.14224333      -0.08212377       0.00000003 
Ti       4.28690916      10.80596611       1.16382051       0.14226832      -0.08208200       0.00000003 
Ti      10.03775703      10.80596611       1.16382051       0.14227760      -0.08206861       0.00000003 
Ti       4.28690916       0.84520541       5.81910256       0.14225290      -0.08208557      -0.00021556 
Ti      10.03775703       0.84520541       5.81910256       0.14225024      -0.08212707       0.00000194 
Ti      15.78860490       0.84520541       5.81910256       0.14226705      -0.08212560      -0.00000970 
Ti       1.41148523       5.82558576       5.81910256       0.14221490      -0.08206921       0.00035183 
Ti       7.16233310       5.82558576       5.81910256       0.14225521      -0.08213245       0.00001114 
Ti      12.91318097       5.82558576       5.81910256       0.14224739      -0.08212778      -0.00000085 
Ti      -1.46393871      10.80596611       5.81910256       0.14224681      -0.08212536       0.00000129 
Ti       4.28690916      10.80596611       5.81910256       0.14224557      -0.08212882      -0.00000143 
Ti      10.03775703      10.80596611       5.81910256       0.14224627      -0.08212934       0.00000224 
Ti       4.28690916       0.84520541      10.47438461       0.14225290      -0.08208557       0.00021561 
Ti      10.03775703       0.84520541      10.47438461       0.14225024      -0.08212707      -0.00000188 
Ti      15.78860490       0.84520541      10.47438461       0.14226705      -0.08212560       0.00000976 
Ti       1.41148523       5.82558576      10.47438461       0.14221490      -0.08206921      -0.00035178 
Ti       7.16233310       5.82558576      10.47438461       0.14225521      -0.08213245      -0.00001109 
Ti      12.91318097       5.82558576      10.47438461       0.14224739      -0.08212778       0.00000091 
Ti      -1.46393871      10.80596611      10.47438461       0.14224681      -0.08212536      -0.00000123 
Ti       4.28690916      10.80596611      10.47438461       0.14224557      -0.08212882       0.00000148 
Ti      10.03775703      10.80596611      10.47438461       0.14224627      -0.08212934      -0.00000218 
Ti       0.00000000       1.69041082       3.49146154      -0.00001473      -0.16433928      -0.00013593 
Ti       5.75084787       1.69041082       3.49146154       0.00124187      -0.16506071       0.00090605 
Ti      11.50169574       1.69041082       3.49146154       0.00000967      -0.16424693       0.00000033 
Ti      -2.87542393       6.67079117       3.49146154      -0.00009661      -0.16420677       0.00003289 
Ti       2.87542394       6.67079117       3.49146154       0.00019496      -0.16507638      -0.00037761 
Ti       8.62627180       6.67079117       3.49146154       0.00001275      -0.16426918      -0.00001069 
Ti      -5.75084787      11.65117152       3.49146154       0.00001403      -0.16411596      -0.00006974 
Ti       0.00000000      11.65117152       3.49146154       0.00000827      -0.16424554       0.00000107 
Ti       5.75084787      11.65117152       3.49146154       0.00000878      -0.16424585       0.00000071 
Ti       0.00000000       1.69041082       8.14674359       0.00000831      -0.16424730      -0.00000003 
Ti       5.75084787       1.69041082       8.14674359       0.00000794      -0.16424707      -0.00000003 
Ti      11.50169574       1.69041082       8.14674359       0.00000831      -0.16424720      -0.00000003 
Ti      -2.87542393       6.67079117       8.14674359       0.00000831      -0.16424720      -0.00000003 
Ti       2.87542394       6.67079117       8.14674359       0.00000835      -0.16424675      -0.00000003 
Ti       8.62627180       6.67079117       8.14674359       0.00000831      -0.16424720      -0.00000003 
Ti      -5.75084787      11.65117152       8.14674359       0.00000831      -0.16424720      -0.00000003 
Ti       0.00000000      11.65117152       8.14674359       0.00000831      -0.16424720      -0.00000003 
Ti       5.75084787      11.65117152       8.14674359       0.00000831      -0.16424720      -0.00000003 
Ti       0.00000000       1.69041082      12.80202564      -0.00001473      -0.16433928       0.00013588 
Ti       5.75084787       1.69041082      12.80202564       0.00124187      -0.16506071      -0.00090610 
Ti      11.50169574       1.69041082      12.80202564       0.00000967      -0.16424693      -0.00000039 
Ti      -2.87542393       6.67079117      12.80202564      -0.00009661      -0.16420677      -0.00003294 
Ti       2.87542394       6.67079117      12.80202564       0.00019496      -0.16507638       0.00037756 
Ti       8.62627180       6.67079117      12.80202564       0.00001275      -0.16426918       0.00001064 
Ti      -5.75084787      11.65117152      12.80202564       0.00001403      -0.16411596       0.00006969 
Ti       0.00000000      11.65117152      12.80202564       0.00000827      -0.16424554      -0.00000112 
Ti       5.75084787      11.65117152      12.80202564       0.00000878      -0.16424585      -0.00000076 
Al      -0.00000288       3.32025523       1.16382051      -0.00810520      -0.00000184       0.00000004 
Al       5.75084499       3.32025523       1.16382051      -0.00701937      -0.00008892       0.00000004 
Al      11.50169286       3.32025523       1.16382051       0.00001818      -0.00001133       0.00000004 
Al      -2.87542681       8.30063558       1.16382051      -0.00003353       0.00002762       0.00000004 
Al       2.87542106       8.30063558       1.16382051       0.00010021       0.00075695       0.00000004 
Al       8.62626893       8.30063558       1.16382051       0.00003929       0.00000056       0.00000004 
Al      -5.75085075      13.28101593       1.16382051       0.00009773       0.00088643       0.00000004 
Al      -0.00000288      13.28101593       1.16382051      -0.00001785       0.00001969       0.00000004 
Al       5.75084499      13.28101593       1.16382051       0.00003302      -0.00000327       0.00000004 
Al      -0.00000288       3.32025523       5.81910256       0.00006030      -0.00010482       0.00008142 
Al       5.75084499       3.32025523       5.81910256      -0.00004946      -0.00009520      -0.00015055 
Al      11.50169286       3.32025523       5.81910256       0.00001889      -0.00001105       0.00000008 
Al      -2.87542681       8.30063558       5.81910256       0.00001160      -0.00000655       0.00000619 
Al       2.87542106       8.30063558       5.81910256       0.00002886       0.00003621       0.00005910 
Al       8.62626893       8.30063558       5.81910256       0.00002159      -0.00000968       0.00000200 
Al      -5.75085075      13.28101593       5.81910256       0.00002328       0.00010060      -0.00009913 
Al      -0.00000288      13.28101593       5.81910256       0.00001745      -0.00000931      -0.00000126 
Al       5.75084499      13.28101593       5.81910256       0.00001928      -0.00001103      -0.00000003 
Al      -0.00000288       3.32025523      10.47438461       0.00006030      -0.00010482      -0.00008134 
Al       5.75084499       3.32025523      10.47438461      -0.00004946      -0.00009520       0.00015062 
Al      11.50169286       3.32025523      10.47438461       0.00001889      -0.00001105      -0.00000001 
Al      -2.87542681       8.30063558      10.47438461       0.00001160      -0.00000655      -0.00000611 
Al       2.87542106       8.30063558      10.47438461       0.00002886       0.00003621      -0.00005903 
Al       8.62626893       8.30063558      10.47438461       0.00002159      -0.00000968      -0.00000193 
Al      -5.75085075      13.28101593      10.47438461       0.00002328       0.00010060       0.00009920 
Al      -0.00000288      13.28101593      10.47438461       0.00001745      -0.00000931       0.00000133 
Al       5.75084499      13.28101593      10.47438461       0.00001928      -0.00001103       0.00000011 
Al       2.87542681       1.66012512       3.49146154       0.00012348       0.00477202      -0.00699779 
Al       8.62627468       1.66012512       3.49146154      -0.00018830       0.00005436      -0.00009578 
Al      14.37712255       1.66012512       3.49146154      -0.00011372      -0.00006108       0.00006276 
Al       0.00000288       6.64050547       3.49146154      -0.00044794       0.00053664       0.00045253 
Al       5.75085075       6.64050547       3.49146154       0.00021003       0.00001490       0.00009525 
Al      11.50169861       6.64050547       3.49146154      -0.00001954       0.00001112       0.00000008 
Al      -2.87542106      11.62088582       3.49146154      -0.00004590       0.00006073      -0.00002336 
Al       2.87542681      11.62088582       3.49146154      -0.00001909       0.00002150       0.00000541 
Al       8.62627468      11.62088582       3.49146154       0.00000029       0.00003963      -0.00001521 
Al       2.87542681       1.66012512       8.14674359      -0.00001911       0.00001102      -0.00000004 
Al       8.62627468       1.66012512       8.14674359      -0.00001909       0.00001103      -0.00000004 
Al      14.37712255       1.66012512       8.14674359      -0.00001909       0.00001103      -0.00000004 
Al       0.00000288       6.64050547       8.14674359      -0.00001909       0.00001103      -0.00000004 
Al       5.75085075       6.64050547       8.14674359      -0.00001909       0.00001103      -0.00000004 
Al      11.50169861       6.64050547       8.14674359      -0.00001909       0.00001103      -0.00000004 
Al      -2.87542106      11.62088582       8.14674359      -0.00001909       0.00001103      -0.00000004 
Al       2.87542681      11.62088582       8.14674359      -0.00001909       0.00001103      -0.00000004 
Al       8.62627468      11.62088582       8.14674359      -0.00001909       0.00001103      -0.00000004 
Al       2.87542681       1.66012512      12.80202564       0.00012348       0.00477202       0.00699771 
Al       8.62627468       1.66012512      12.80202564      -0.00018830       0.00005436       0.00009570 
Al      14.37712255       1.66012512      12.80202564      -0.00011372      -0.00006108      -0.00006283 
Al       0.00000288       6.64050547      12.80202564      -0.00044794       0.00053664      -0.00045261 
Al       5.75085075       6.64050547      12.80202564       0.00021003       0.00001490      -0.00009533 
Al      11.50169861       6.64050547      12.80202564      -0.00001954       0.00001112      -0.00000016 
Al      -2.87542106      11.62088582      12.80202564      -0.00004590       0.00006073       0.00002329 
Al       2.87542681      11.62088582      12.80202564      -0.00001909       0.00002150      -0.00000548 
Al       8.62627468      11.62088582      12.80202564       0.00000029       0.00003963       0.00001513 
