216
Lattice="17.25254361 0.0 0.0 -8.626271804999996 14.94114104615889 0.0 0.0 0.0 13.96584615" Properties=species:S:1:pos:R:3:forces:R:3 pbc="T T T"
Ti       2.88042394       3.28130928       1.16382051      -0.02779061       0.21410875       0.00000003 
Ti       8.62627181       3.28996953       1.16382051       0.00012017       0.16426369       0.00000003 
Ti      14.37711968       3.28996953       1.16382051       0.00015571       0.16428245       0.00000003 
Ti       0.00000000       8.27034988       1.16382051       0.00022428       0.16378804       0.00000003 
Ti       5.75084788       8.27034988       1.16382051      -0.00016402       0.16409800       0.00000003 
Ti      11.50169575       8.27034988       1.16382051      -0.00000896       0.16424562       0.00000003 
Ti      -2.87542393      13.25073023       1.16382051       0.00030196       0.16382857       0.00000003 
Ti       2.87542394      13.25073023       1.16382051      -0.00000899       0.16424572       0.00000003 
Ti       8.62627181      13.25073023       1.16382051      -0.00024175       0.16405502       0.00000003 
Ti       2.87542394       3.28996953       5.81910256      -0.00009563       0.16435625      -0.00015747 
Ti       8.62627181       3.28996953       5.81910256      -0.00001590       0.16423964      -0.00000440 
Ti      14.37711968       3.28996953       5.81910256       0.00000598       0.16425230      -0.00001322 
Ti       0.00000000       8.27034988       5.81910256      -0.00001558       0.16421406      -0.00004015 
Ti       5.75084788       8.27034988       5.81910256       0.00000204       0.16424089      -0.00000741 
Ti      11.50169575       8.27034988       5.81910256      -0.00000835       0.16424721       0.00000003 
Ti      -2.87542393      13.25073023       5.81910256       0.00001723       0.16423211       0.00001952 
Ti       2.87542394      13.25073023       5.81910256      -0.00000835       0.16424721       0.00000003 
Ti       8.62627181      13.25073023       5.81910256      -0.00003064       0.16422196       0.00002311 
Ti       2.87542394       3.28996953      10.47438461      -0.00009563       0.16435625       0.00015752 
Ti       8.62627181       3.28996953      10.47438461      -0.00001590       0.16423964       0.00000446 
Ti      14.37711968       3.28996953      10.47438461       0.00000598       0.16425230       0.00001328 
Ti       0.00000000       8.27034988      10.47438461      -0.00001558       0.16421406       0.00004021 
Ti       5.75084788       8.27034988      10.47438461       0.00000204       0.16424089       0.00000746 
Ti      11.50169575       8.27034988      10.47438461      -0.00000835       0.16424721       0.00000003 
Ti      -2.87542393      13.25073023      10.47438461       0.00001723       0.16423211      -0.00001946 
Ti       2.87542394      13.25073023      10.47438461      -0.00000835       0.16424721       0.00000003 
Ti       8.62627181      13.25073023      10.47438461      -0.00003064       0.16422196      -0.00002305 
Ti      -1.41148523       4.13517494       3.49146154      -0.14187687       0.08223517      -0.00017685 
Ti       4.33936264       4.13517494       3.49146154      -0.14299293       0.08247313      -0.00065089 
Ti      10.09021051       4.13517494       3.49146154      -0.14222052       0.08212944       0.00001365 
Ti      -4.28690916       9.11555529       3.49146154      -0.14224480       0.08212475       0.00000135 
Ti       1.46393871       9.11555529       3.49146154      -0.14219996       0.08189102      -0.00010292 
Ti       7.21478658       9.11555529       3.49146154      -0.14225842       0.08210762      -0.00000376 
Ti      -7.16233310      14.09593564       3.49146154      -0.14248781       0.08189007       0.00032544 
Ti      -1.41148523      14.09593564       3.49146154      -0.14206745       0.08196307       0.00010204 
Ti       4.33936264      14.09593564       3.49146154      -0.14224686       0.08212617       0.00000000 
Ti      -1.41148523       4.13517494       8.14674359      -0.14224671       0.08212622      -0.00000003 
Ti       4.33936264       4.13517494       8.14674359      -0.14224731       0.08212694      -0.00000003 
Ti      10.09021051       4.13517494       8.14674359      -0.14224676       0.08212623      -0.00000003 
Ti      -4.28690916       9.11555529       8.14674359      -0.14224676       0.08212623      -0.00000003 
Ti       1.46393871       9.11555529       8.14674359      -0.14224676       0.08212623      -0.00000003 
Ti       7.21478658       9.11555529       8.14674359      -0.14224676       0.08212623      -0.00000003 
Ti      -7.16233310      14.09593564       8.14674359      -0.14224677       0.08212618      -0.00000003 
Ti      -1.41148523      14.09593564       8.14674359      -0.14224676       0.08212623      -0.00000003 
Ti       4.33936264      14.09593564       8.14674359      -0.14224676       0.08212623      -0.00000003 
Ti      -1.41148523       4.13517494      12.80202564      -0.14187687       0.08223517       0.00017679 
Ti       4.33936264       4.13517494      12.80202564      -0.14299293       0.08247313       0.00065084 
Ti      10.09021051       4.13517494      12.80202564      -0.14222052       0.08212944      -0.00001371 
Ti      -4.28690916       9.11555529      12.80202564      -0.14224480       0.08212475      -0.00000141 
Ti       1.46393871       9.11555529      12.80202564      -0.14219996       0.08189102       0.00010287 
Ti       7.21478658       9.11555529      12.80202564      -0.14225842       0.08210762       0.00000370 
Ti      -7.16233310      14.09593564      12.80202564      -0.14248781       0.08189007      -0.00032550 
Ti      -1.41148523      14.09593564      12.80202564      -0.14206745       0.08196307      -0.00010210 
Ti       4.33936264      14.09593564      12.80202564      -0.14224686       0.08212617      -0.00000006 
Ti       1.41148523       4.13517494       3.49146154       0.14610228       0.08072594      -0.00606372 
Ti       7.16233310       4.13517494       3.49146154       0.14236024       0.08232742       0.00005325 
Ti      12.91318097       4.13517494       3.49146154       0.14227983       0.08211063      -0.00001279 
Ti      -1.46393870       9.11555529       3.49146154       0.14227916       0.08206783      -0.00000481 
Ti       4.28690917       9.11555529       3.49146154       0.14217766       0.08195213      -0.00008291 
Ti      10.03775704       9.11555529       3.49146154       0.14224513       0.08211480       0.00000098 
Ti      -4.33936264      14.09593564       3.49146154       0.14235929       0.08163189       0.00048364 
Ti       1.41148523      14.09593564       3.49146154       0.14224096       0.08211964      -0.00000236 
Ti       7.16233310      14.09593564       3.49146154       0.14217663       0.08210239       0.00001770 
Ti       1.41148523       4.13517494       8.14674359       0.14224720       0.08211650      -0.00000003 
Ti       7.16233310       4.13517494       8.14674359       0.14224640       0.08211641      -0.00000003 
Ti      12.91318097       4.13517494       8.14674359       0.14224637       0.08211640      -0.00000003 
Ti      -1.46393870       9.11555529       8.14674359       0.14224637       0.08211640      -0.00000003 
Ti       4.28690917       9.11555529       8.14674359       0.14224637       0.08211640      -0.00000003 
Ti      10.03775704       9.11555529       8.14674359       0.14224637       0.08211640      -0.00000003 
Ti      -4.33936264      14.09593564       8.14674359       0.14224639       0.08211633      -0.00000003 
Ti       1.41148523      14.09593564       8.14674359       0.14224637       0.08211640      -0.00000003 
Ti       7.16233310      14.09593564       8.14674359       0.14224637       0.08211640      -0.00000003 
Ti       1.41148523       4.13517494      12.80202564       0.14610228       0.08072594       0.00606367 
Ti       7.16233310       4.13517494      12.80202564       0.14236024       0.08232742      -0.00005331 
Ti      12.91318097       4.13517494      12.80202564       0.14227983       0.08211063       0.00001274 
Ti      -1.46393870       9.11555529      12.80202564       0.14227916       0.08206783       0.00000476 
Ti       4.28690917       9.11555529      12.80202564       0.14217766       0.08195213       0.00008286 
Ti      10.03775704       9.11555529      12.80202564       0.14224513       0.08211480      -0.00000104 
Ti      -4.33936264      14.09593564      12.80202564       0.14235929       0.08163189      -0.00048369 
Ti       1.41148523      14.09593564      12.80202564       0.14224096       0.08211964       0.00000231 
Ti       7.16233310      14.09593564      12.80202564       0.14217663       0.08210239      -0.00001775 
Ti       1.46393871       0.84520541       1.16382051      -0.14647424      -0.08823639       0.00000003 
Ti       7.21478658       0.84520541       1.16382051      -0.14151590      -0.08232785       0.00000003 
Ti      12.96563445       0.84520541       1.16382051      -0.14221465      -0.08209850       0.00000003 
Ti      -1.41148522       5.82558576       1.16382051      -0.14150612      -0.08232078       0.00000003 
Ti       4.33936264       5.82558576       1.16382051      -0.14615972      -0.08757740       0.00000003 
Ti      10.09021051       5.82558576       1.16382051      -0.14222616      -0.08210388       0.00000003 
Ti      -4.28690916      10.80596611       1.16382051      -0.14221407      -0.08218303       0.00000003 
Ti       1.46393871      10.80596611       1.16382051      -0.14222667      -0.08216576       0.00000003 
Ti       7.21478658      10.80596611       1.16382051      -0.14224952      -0.08211857       0.00000003 
Ti       1.46393871       0.84520541       5.81910256      -0.14228403      -0.08208583       0.00006950 
Ti       7.21478658       0.84520541       5.81910256      -0.14218344      -0.08214297       0.00006659 
Ti      12.96563445       0.84520541       5.81910256      -0.14224680      -0.08211679       0.00000033 
Ti      -1.41148522       5.82558576       5.81910256      -0.14218420      -0.08212959      -0.00008230 
Ti       4.33936264       5.82558576       5.81910256      -0.14232678      -0.08210787      -0.00017415 
Ti      10.09021051       5.82558576       5.81910256      -0.14224797      -0.08211691      -0.00000108 
Ti      -4.28690916      10.80596611       5.81910256      -0.14224680      -0.08211212      -0.00000302 
Ti       1.46393871      10.80596611       5.81910256      -0.14224796      -0.08211478       0.00000094 
Ti       7.21478658      10.80596611       5.81910256      -0.14224622      -0.08211646      -0.00000054 
Ti       1.46393871       0.84520541      10.47438461      -0.14228403      -0.08208583      -0.00006945 
Ti       7.21478658       0.84520541      10.47438461      -0.14218344      -0.08214297      -0.00006654 
Ti      12.96563445       0.84520541      10.47438461      -0.14224680      -0.08211679      -0.00000027 
Ti      -1.41148522       5.82558576      10.47438461      -0.14218420      -0.08212959       0.00008236 
Ti       4.33936264       5.82558576      10.47438461      -0.14232678      -0.08210787       0.00017420 
Ti      10.09021051       5.82558576      10.47438461      -0.14224797      -0.08211691       0.00000114 
Ti      -4.28690916      10.80596611      10.47438461      -0.14224680      -0.08211212       0.00000307 
Ti       1.46393871      10.80596611      10.47438461      -0.14224796      -0.08211478      -0.00000088 
Ti       7.21478658      10.80596611      10.47438461      -0.14224622      -0.08211646       0.00000060 
Ti       4.28690916       0.84520541       1.16382051       0.14973190      -0.09483234       0.00000003 
Ti      10.03775703       0.84520541       1.16382051       0.14228792      -0.08214317       0.00000003 
Ti      15.78860490       0.84520541       1.16382051       0.14205224      -0.08203513       0.00000003 
Ti       1.41148523       5.82558576       1.16382051       0.14886944      -0.09242284       0.00000003 
Ti       7.16233310       5.82558576       1.16382051       0.14206479      -0.08202871       0.00000003 
Ti      12.91318097       5.82558576       1.16382051       0.14228025      -0.08213791       0.00000003 
Ti      -1.46393871      10.80596611       1.16382051       0.14225021      -0.08212855       0.00000003 
Ti       4.28690916      10.80596611       1.16382051       0.14222637      -0.08216843       0.00000003 
Ti      10.03775703      10.80596611       1.16382051       0.14221485      -0.08218582       0.00000003 
Ti       4.28690916       0.84520541       5.81910256       0.14223909      -0.08216548       0.00021573 
Ti      10.03775703       0.84520541       5.81910256       0.14224334      -0.08212539      -0.00000189 
Ti      15.78860490       0.84520541       5.81910256       0.14222664      -0.08212684       0.00000956 
Ti       1.41148523       5.82558576       5.81910256       0.14227996      -0.08218484      -0.00034875 
Ti       7.16233310       5.82558576       5.81910256       0.14223824      -0.08212017      -0.00001113 
Ti      12.91318097       5.82558576       5.81910256       0.14224619      -0.08212473       0.00000091 
Ti      -1.46393871      10.80596611       5.81910256       0.14224674      -0.08212702      -0.00000121 
Ti       4.28690916      10.80596611       5.81910256       0.14224802      -0.08212366       0.00000148 
Ti      10.03775703      10.80596611       5.81910256       0.14224735      -0.08212305      -0.00000224 
Ti       4.28690916       0.84520541      10.47438461       0.14223909      -0.08216548      -0.00021568 
Ti      10.03775703       0.84520541      10.47438461       0.14224334      -0.08212539       0.00000194 
Ti      15.78860490       0.84520541      10.47438461       0.14222664      -0.08212684      -0.00000950 
Ti       1.41148523       5.82558576      10.47438461       0.14227996      -0.08218484       0.00034881 
Ti       7.16233310       5.82558576      10.47438461       0.14223824      -0.08212017       0.00001118 
Ti      12.91318097       5.82558576      10.47438461       0.14224619      -0.08212473      -0.00000085 
Ti      -1.46393871      10.80596611      10.47438461       0.14224674      -0.08212702       0.00000127 
Ti       4.28690916      10.80596611      10.47438461       0.14224802      -0.08212366      -0.00000142 
Ti      10.03775703      10.80596611      10.47438461       0.14224735      -0.08212305       0.00000229 
Ti       0.00000000       1.69041082       3.49146154       0.00002079      -0.16416063       0.00014394 
Ti       5.75084787       1.69041082       3.49146154      -0.00122891      -0.16343507      -0.00091188 
Ti      11.50169574       1.69041082       3.49146154       0.00000693      -0.16424747      -0.00000040 
Ti      -2.87542393       6.67079117       3.49146154       0.00010995      -0.16428710      -0.00003223 
Ti       2.87542394       6.67079117       3.49146154      -0.00017902      -0.16341688       0.00037763 
Ti       8.62627180       6.67079117       3.49146154       0.00000403      -0.16422523       0.00001065 
Ti      -5.75084787      11.65117152       3.49146154       0.00000223      -0.16438140       0.00007207 
Ti       0.00000000      11.65117152       3.49146154       0.00000827      -0.16424870      -0.00000110 
Ti       5.75084787      11.65117152       3.49146154       0.00000789      -0.16424849      -0.00000073 
Ti       0.00000000       1.69041082       8.14674359       0.00000827      -0.16424712      -0.00000003 
Ti       5.75084787       1.69041082       8.14674359       0.00000872      -0.16424736      -0.00000003 
Ti      11.50169574       1.69041082       8.14674359       0.00000831      -0.16424720      -0.00000003 
Ti      -2.87542393       6.67079117       8.14674359       0.00000831      -0.16424720      -0.00000003 
Ti       2.87542394       6.67079117       8.14674359       0.00000827      -0.16424762      -0.00000003 
Ti       8.62627180       6.67079117       8.14674359       0.00000831      -0.16424720      -0.00000003 
Ti      -5.75084787      11.65117152       8.14674359       0.00000831      -0.16424720      -0.00000003 
Ti       0.00000000      11.65117152       8.14674359       0.00000831      -0.16424720      -0.00000003 
Ti       5.75084787      11.65117152       8.14674359       0.00000831      -0.16424720      -0.00000003 
Ti       0.00000000       1.69041082      12.80202564       0.00002079      -0.16416063      -0.00014400 
Ti       5.75084787       1.69041082      12.80202564      -0.00122891      -0.16343507       0.00091182 
Ti      11.50169574       1.69041082      12.80202564       0.00000693      -0.16424747       0.00000035 
Ti      -2.87542393       6.67079117      12.80202564       0.00010995      -0.16428710       0.00003218 
Ti       2.87542394       6.67079117      12.80202564      -0.00017902      -0.16341688      -0.00037769 
Ti       8.62627180       6.67079117      12.80202564       0.00000403      -0.16422523      -0.00001071 
Ti      -5.75084787      11.65117152      12.80202564       0.00000223      -0.16438140      -0.00007213 
Ti       0.00000000      11.65117152      12.80202564       0.00000827      -0.16424870       0.00000105 
Ti       5.75084787      11.65117152      12.80202564       0.00000789      -0.16424849       0.00000067 
Al      -0.00000288       3.32025523       1.16382051       0.00796012      -0.00006773       0.00000004 
Al       5.75084499       3.32025523       1.16382051       0.00721822       0.00011080       0.00000004 
Al      11.50169286       3.32025523       1.16382051       0.00002009      -0.00001074       0.00000004 
Al      -2.87542681       8.30063558       1.16382051       0.00007042      -0.00004858       0.00000004 
Al       2.87542106       8.30063558       1.16382051      -0.00005955      -0.00078596       0.00000004 
Al       8.62626893       8.30063558       1.16382051      -0.00000094      -0.00002261       0.00000004 
Al      -5.75085075      13.28101593       1.16382051      -0.00006144      -0.00090165       0.00000004 
Al      -0.00000288      13.28101593       1.16382051       0.00005687      -0.00004250       0.00000004 
Al       5.75084499      13.28101593       1.16382051       0.00000524      -0.00001879       0.00000004 
Al      -0.00000288       3.32025523       5.81910256      -0.00002165       0.00008230      -0.00008119 
Al       5.75084499       3.32025523       5.81910256       0.00008736       0.00007327       0.00015013 
Al      11.50169286       3.32025523       5.81910256       0.00001939      -0.00001102      -0.00000001 
Al      -2.87542681       8.30063558       5.81910256       0.00002636      -0.00001533      -0.00000585 
Al       2.87542106       8.30063558       5.81910256       0.00000977      -0.00005811      -0.00005861 
Al       8.62626893       8.30063558       5.81910256       0.00001671      -0.00001238      -0.00000191 
Al      -5.75085075      13.28101593       5.81910256       0.00001482      -0.00012290       0.00009999 
Al      -0.00000288      13.28101593       5.81910256       0.00002085      -0.00001278       0.00000135 
Al       5.75084499      13.28101593       5.81910256       0.00001900      -0.00001103       0.00000010 
Al      -0.00000288       3.32025523      10.47438461      -0.00002165       0.00008230       0.00008126 
Al       5.75084499       3.32025523      10.47438461       0.00008736       0.00007327      -0.00015005 
Al      11.50169286       3.32025523      10.47438461       0.00001939      -0.00001102       0.00000008 
Al      -2.87542681       8.30063558      10.47438461       0.00002636      -0.00001533       0.00000592 
Al       2.87542106       8.30063558      10.47438461       0.00000977      -0.00005811       0.00005868 
Al       8.62626893       8.30063558      10.47438461       0.00001671      -0.00001238       0.00000198 
Al      -5.75085075      13.28101593      10.47438461       0.00001482      -0.00012290      -0.00009992 
Al      -0.00000288      13.28101593      10.47438461       0.00002085      -0.00001278      -0.00000128 
Al       5.75084499      13.28101593      10.47438461       0.00001900      -0.00001103      -0.00000003 
Al       2.87542681       1.66012512       3.49146154      -0.00019113      -0.00481713       0.00716925 
Al       8.62627468       1.66012512       3.49146154       0.00015074      -0.00003198       0.00009639 
Al      14.37712255       1.66012512       3.49146154       0.00007550       0.00008291      -0.00006282 
Al       0.00000288       6.64050547       3.49146154       0.00041435      -0.00052059      -0.00045412 
Al       5.75085075       6.64050547       3.49146154      -0.00024774       0.00000569      -0.00009519 
Al      11.50169861       6.64050547       3.49146154      -0.00001865       0.00001094      -0.00000015 
Al      -2.87542106      11.62088582       3.49146154       0.00000848      -0.00003981       0.00002382 
Al       2.87542681      11.62088582       3.49146154      -0.00001909       0.00000095      -0.00000523 
Al       8.62627468      11.62088582       3.49146154      -0.00003893      -0.00001798       0.00001542 
Al       2.87542681       1.66012512       8.14674359      -0.00001907       0.00001114      -0.00000004 
Al       8.62627468       1.66012512       8.14674359      -0.00001909       0.00001103      -0.00000004 
Al      14.37712255       1.66012512       8.14674359      -0.00001909       0.00001103      -0.00000004 
Al       0.00000288       6.64050547       8.14674359      -0.00001909       0.00001103      -0.00000004 
Al       5.75085075       6.64050547       8.14674359      -0.00001909       0.00001103      -0.00000004 
Al      11.50169861       6.64050547       8.14674359      -0.00001909       0.00001103      -0.00000004 
Al      -2.87542106      11.62088582       8.14674359      -0.00001909       0.00001103      -0.00000004 
Al       2.87542681      11.62088582       8.14674359      -0.00001909       0.00001103      -0.00000004 
Al       8.62627468      11.62088582       8.14674359      -0.00001909       0.00001103      -0.00000004 
Al       2.87542681       1.66012512      12.80202564      -0.00019113      -0.00481713      -0.00716932 
Al       8.62627468       1.66012512      12.80202564       0.00015074      -0.00003198      -0.00009646 
Al      14.37712255       1.66012512      12.80202564       0.00007550       0.00008291       0.00006275 
Al       0.00000288       6.64050547      12.80202564       0.00041435      -0.00052059       0.00045405 
Al       5.75085075       6.64050547      12.80202564      -0.00024774       0.00000569       0.00009511 
Al      11.50169861       6.64050547      12.80202564      -0.00001865       0.00001094       0.00000008 
Al      -2.87542106      11.62088582      12.80202564       0.00000848      -0.00003981      -0.00002389 
Al       2.87542681      11.62088582      12.80202564      -0.00001909       0.00000095       0.00000516 
Al       8.62627468      11.62088582      12.80202564      -0.00003893      -0.00001798      -0.00001549 
