216
Lattice="17.25254361 0.0 0.0 -8.626271804999996 14.94114104615889 0.0 0.0 0.0 13.96584615" Properties=species:S:1:pos:R:3:forces:R:3 pbc="T T T"
Ti       2.87542394       3.28996953       1.16382051       0.01198553       0.16383444      -0.00007812 
Ti       8.62627181       3.28996953       1.16382051      -0.00000687       0.16424721      -0.00000016 
Ti      14.37711968       3.28996953       1.16382051       0.01155357       0.16465486      -0.00003007 
Ti       0.00000000       8.27034988       1.16382051      -0.00013208       0.16424685      -0.00018664 
Ti       5.75084788       8.27034988       1.16382051       0.00001011       0.16427057      -0.00000130 
Ti      11.50169575       8.27034988       1.16382051       0.00000965       0.16422457      -0.00000124 
Ti      -2.87542393      13.25073023       1.16382051       0.00001661       0.16421454      -0.00000411 
Ti       2.87542394      13.25073023       1.16382051       0.00001620       0.16427923      -0.00000403 
Ti       8.62627181      13.25073023       1.16382051      -0.00013254       0.16424748      -0.00008951 
Ti       2.87542394       3.28996953       5.81910256       0.00015801       0.16432205       0.00040640 
Ti       8.62627181       3.28996953       5.81910256      -0.00000795       0.16424717       0.00000012 
Ti      14.37711968       3.28996953       5.81910256      -0.00013316       0.16422316      -0.00002675 
Ti       0.00000000       8.27034988       5.81910256      -0.00001503       0.16431966       0.00008484 
Ti       5.75084788       8.27034988       5.81910256      -0.00000633       0.16424856       0.00000175 
Ti      11.50169575       8.27034988       5.81910256      -0.00000792       0.16424688      -0.00000035 
Ti      -2.87542393      13.25073023       5.81910256      -0.00000192       0.16423985       0.00000520 
Ti       2.87542394      13.25073023       5.81910256      -0.00000707       0.16424873      -0.00000102 
Ti       8.62627181      13.25073023       5.81910256      -0.00002335       0.16420424       0.00003949 
Ti       2.87542394       3.28996953      10.47438461      -0.00013239       0.16427117      -0.00002673 
Ti       8.62627181       3.28996953      10.47438461      -0.00000797       0.16424724       0.00000012 
Ti      14.37711968       3.28996953      10.47438461       0.00015943       0.16417373       0.00040547 
Ti       0.00000000       8.27034988      10.47438461      -0.00001482       0.16417499       0.00008483 
Ti       5.75084788       8.27034988      10.47438461      -0.00000792       0.16424753      -0.00000035 
Ti      11.50169575       8.27034988      10.47438461      -0.00000640       0.16424591       0.00000169 
Ti      -2.87542393      13.25073023      10.47438461      -0.00000708       0.16424570      -0.00000101 
Ti       2.87542394      13.25073023      10.47438461      -0.00000200       0.16425446       0.00000513 
Ti       8.62627181      13.25073023      10.47438461      -0.00002303       0.16428976       0.00003901 
Ti      -1.41148523       4.13517494       3.49146154      -0.14352519       0.08272002       0.00175483 
Ti       4.33936264       4.13517494       3.49146154      -0.14144406       0.08241684       0.00037404 
Ti      10.09021051       4.13517494       3.49146154      -0.14221743       0.08212323      -0.00000787 
Ti      -4.28690916       9.11555529       3.49146154      -0.14224462       0.08211775      -0.00000447 
Ti       1.46393871       9.11555529       3.49146154      -0.14221925       0.08225510       0.00001112 
Ti       7.21478658       9.11555529       3.49146154      -0.14224645       0.08212645       0.00000007 
Ti      -7.16233310      14.09593564       3.49146154      -0.14227426       0.08156519       0.00016731 
Ti      -1.41148523      14.09593564       3.49146154      -0.14223641       0.08212025       0.00000143 
Ti       4.33936264      14.09593564       3.49146154      -0.14221220       0.08219881      -0.00004176 
Ti      -1.41148523       4.13517494       8.14674359      -0.14224716       0.08212648       0.00015243 
Ti       4.33936264       4.13517494       8.14674359      -0.14224673       0.08212623       0.00000275 
Ti      10.09021051       4.13517494       8.14674359      -0.14224676       0.08212623      -0.00000003 
Ti      -4.28690916       9.11555529       8.14674359      -0.14224676       0.08212623      -0.00000003 
Ti       1.46393871       9.11555529       8.14674359      -0.14224676       0.08212623      -0.00000003 
Ti       7.21478658       9.11555529       8.14674359      -0.14224676       0.08212623      -0.00000003 
Ti      -7.16233310      14.09593564       8.14674359      -0.14224675       0.08212620       0.00000273 
Ti      -1.41148523      14.09593564       8.14674359      -0.14224676       0.08212623      -0.00000003 
Ti       4.33936264      14.09593564       8.14674359      -0.14224676       0.08212623      -0.00000003 
Ti      -1.41148523       4.13517494      12.80202564      -0.13477157       0.07769347       0.01305752 
Ti       4.33936264       4.13517494      12.80202564      -0.14201030       0.08222587      -0.00027305 
Ti      10.09021051       4.13517494      12.80202564      -0.14218857       0.08211817       0.00000776 
Ti      -4.28690916       9.11555529      12.80202564      -0.14222559       0.08209503       0.00000436 
Ti       1.46393871       9.11555529      12.80202564      -0.14229802       0.08206925      -0.00001148 
Ti       7.21478658       9.11555529      12.80202564      -0.14224660       0.08212654      -0.00000012 
Ti      -7.16233310      14.09593564      12.80202564      -0.14239239       0.08215472      -0.00006442 
Ti      -1.41148523      14.09593564      12.80202564      -0.14224317       0.08212416      -0.00000148 
Ti       4.33936264      14.09593564      12.80202564      -0.14209208       0.08235889       0.00004140 
Ti       1.41148523       4.13517494       3.49146154       0.15001958       0.08677057       0.01362243 
Ti       7.16233310       4.13517494       3.49146154       0.14230667       0.08212457       0.00000793 
Ti      12.91318097       4.13517494       3.49146154       0.14248624       0.08201526      -0.00027414 
Ti      -1.46393870       9.11555529       3.49146154       0.14219524       0.08217312      -0.00001152 
Ti       4.28690917       9.11555529       3.49146154       0.14226801       0.08214850       0.00000442 
Ti      10.03775704       9.11555529       3.49146154       0.14224652       0.08211609      -0.00000012 
Ti      -4.33936264      14.09593564       3.49146154       0.14240247       0.08188156       0.00004210 
Ti       1.41148523      14.09593564       3.49146154       0.14224992       0.08211845      -0.00000144 
Ti       7.16233310      14.09593564       3.49146154       0.14210048       0.08208928      -0.00006502 
Ti       1.41148523       4.13517494       8.14674359       0.14224671       0.08211658       0.00015342 
Ti       7.16233310       4.13517494       8.14674359       0.14224637       0.08211640      -0.00000003 
Ti      12.91318097       4.13517494       8.14674359       0.14224634       0.08211641       0.00000271 
Ti      -1.46393870       9.11555529       8.14674359       0.14224637       0.08211640      -0.00000003 
Ti       4.28690917       9.11555529       8.14674359       0.14224637       0.08211640      -0.00000003 
Ti      10.03775704       9.11555529       8.14674359       0.14224637       0.08211640      -0.00000003 
Ti      -4.33936264      14.09593564       8.14674359       0.14224637       0.08211640      -0.00000003 
Ti       1.41148523      14.09593564       8.14674359       0.14224637       0.08211640      -0.00000003 
Ti       7.16233310      14.09593564       8.14674359       0.14224636       0.08211637       0.00000272 
Ti       1.41148523       4.13517494      12.80202564       0.14094454       0.08150243       0.00182354 
Ti       7.16233310       4.13517494      12.80202564       0.14227616       0.08211940      -0.00000804 
Ti      12.91318097       4.13517494      12.80202564       0.14306087       0.08182424       0.00038074 
Ti      -1.46393870       9.11555529      12.80202564       0.14227450       0.08198851       0.00001117 
Ti       4.28690917       9.11555529      12.80202564       0.14224850       0.08212493      -0.00000452 
Ti      10.03775704       9.11555529      12.80202564       0.14224667       0.08211618       0.00000007 
Ti      -4.33936264      14.09593564      12.80202564       0.14228078       0.08204357      -0.00004246 
Ti       1.41148523      14.09593564      12.80202564       0.14225655       0.08212228       0.00000139 
Ti       7.16233310      14.09593564      12.80202564       0.14222200       0.08267885       0.00016976 
Ti       1.46393871       0.84520541       1.16382051      -0.13909983      -0.08723477      -0.00006700 
Ti       7.21478658       0.84520541       1.16382051      -0.14220009      -0.08212490      -0.00000411 
Ti      12.96563445       0.84520541       1.16382051      -0.14167244      -0.08171358      -0.00018516 
Ti      -1.41148522       5.82558576       1.16382051      -0.13954855      -0.08722764      -0.00004298 
Ti       4.33936264       5.82558576       1.16382051      -0.14176086      -0.08176402      -0.00009129 
Ti      10.09021051       5.82558576       1.16382051      -0.14221151      -0.08212450      -0.00000123 
Ti      -4.28690916      10.80596611       1.16382051      -0.14224624      -0.08211715      -0.00000016 
Ti       1.46393871      10.80596611       1.16382051      -0.14224646      -0.08211011      -0.00000407 
Ti       7.21478658      10.80596611       1.16382051      -0.14224658      -0.08210888      -0.00000126 
Ti       1.46393871       0.84520541       5.81910256      -0.14227480      -0.08230647       0.00033047 
Ti       7.21478658       0.84520541       5.81910256      -0.14223674      -0.08211840       0.00000527 
Ti      12.96563445       0.84520541       5.81910256      -0.14223539      -0.08210622      -0.00003482 
Ti      -1.41148522       5.82558576       5.81910256      -0.14237170      -0.08203924       0.00011349 
Ti       4.33936264       5.82558576       5.81910256      -0.14218063      -0.08206961       0.00008790 
Ti      10.09021051       5.82558576       5.81910256      -0.14224542      -0.08211696      -0.00000078 
Ti      -4.28690916      10.80596611       5.81910256      -0.14224630      -0.08211655       0.00000009 
Ti       1.46393871      10.80596611       5.81910256      -0.14224523      -0.08211260       0.00000215 
Ti       7.21478658      10.80596611       5.81910256      -0.14224652      -0.08211670       0.00000024 
Ti       1.46393871       0.84520541      10.47438461      -0.14237632      -0.08202835       0.00005004 
Ti       7.21478658       0.84520541      10.47438461      -0.14224439      -0.08211685      -0.00000108 
Ti      12.96563445       0.84520541      10.47438461      -0.14211082      -0.08203442       0.00020340 
Ti      -1.41148522       5.82558576      10.47438461      -0.14218168      -0.08226754       0.00026655 
Ti       4.33936264       5.82558576      10.47438461      -0.14225549      -0.08211301      -0.00000804 
Ti      10.09021051       5.82558576      10.47438461      -0.14224383      -0.08211778       0.00000210 
Ti      -4.28690916      10.80596611      10.47438461      -0.14224636      -0.08211658       0.00000015 
Ti       1.46393871      10.80596611      10.47438461      -0.14224769      -0.08211993       0.00000200 
Ti       7.21478658      10.80596611      10.47438461      -0.14224643      -0.08211487       0.00000111 
Ti       4.28690916       0.84520541       1.16382051       0.14281459      -0.08252548      -0.00018811 
Ti      10.03775703       0.84520541       1.16382051       0.14229216      -0.08211787      -0.00000403 
Ti      15.78860490       0.84520541       1.16382051       0.14538793      -0.07707085      -0.00004029 
Ti       1.41148523       5.82558576       1.16382051       0.14494748      -0.07696311      -0.00006430 
Ti       7.16233310       5.82558576       1.16382051       0.14228280      -0.08211794      -0.00000132 
Ti      12.91318097       5.82558576       1.16382051       0.14273775      -0.08248104      -0.00008774 
Ti      -1.46393871      10.80596611       1.16382051       0.14224680      -0.08213256      -0.00000407 
Ti       4.28690916      10.80596611       1.16382051       0.14224697      -0.08212547      -0.00000016 
Ti      10.03775703      10.80596611       1.16382051       0.14224661      -0.08213374      -0.00000129 
Ti       4.28690916       0.84520541       5.81910256       0.14238364      -0.08220914       0.00020521 
Ti      10.03775703       0.84520541       5.81910256       0.14224884      -0.08212578      -0.00000109 
Ti      15.78860490       0.84520541       5.81910256       0.14211659      -0.08221447       0.00004867 
Ti       1.41148523       5.82558576       5.81910256       0.14231101      -0.08197613       0.00026482 
Ti       7.16233310       5.82558576       5.81910256       0.14224951      -0.08212478       0.00000221 
Ti      12.91318097       5.82558576       5.81910256       0.14223787      -0.08212960      -0.00000803 
Ti      -1.46393871      10.80596611       5.81910256       0.14224552      -0.08212270       0.00000200 
Ti       4.28690916      10.80596611       5.81910256       0.14224686      -0.08212604       0.00000016 
Ti      10.03775703      10.80596611       5.81910256       0.14224678      -0.08212779       0.00000113 
Ti       4.28690916       0.84520541      10.47438461       0.14225764      -0.08213628      -0.00003445 
Ti      10.03775703       0.84520541      10.47438461       0.14225634      -0.08212427       0.00000520 
Ti      15.78860490       0.84520541      10.47438461       0.14221969      -0.08193754       0.00032922 
Ti       1.41148523       5.82558576      10.47438461       0.14212265      -0.08220256       0.00011354 
Ti       7.16233310       5.82558576      10.47438461       0.14224781      -0.08212566      -0.00000080 
Ti      12.91318097       5.82558576      10.47438461       0.14231116      -0.08217172       0.00008518 
Ti      -1.46393871      10.80596611      10.47438461       0.14224799      -0.08213002       0.00000214 
Ti       4.28690916      10.80596611      10.47438461       0.14224691      -0.08212608       0.00000008 
Ti      10.03775703      10.80596611      10.47438461       0.14224670      -0.08212593       0.00000025 
Ti       0.00000000       1.69041082       3.49146154      -0.00026048      -0.16944862       0.00762331 
Ti       5.75084787       1.69041082       3.49146154       0.00031545      -0.16429376       0.00005358 
Ti      11.50169574       1.69041082       3.49146154       0.00011342      -0.16422580      -0.00005293 
Ti      -2.87542393       6.67079117       3.49146154      -0.00005916      -0.16434389      -0.00015674 
Ti       2.87542394       6.67079117       3.49146154       0.00038727      -0.16375365       0.00025914 
Ti       8.62627180       6.67079117       3.49146154       0.00000900      -0.16424711      -0.00000002 
Ti      -5.75084787      11.65117152       3.49146154       0.00001951      -0.16428262       0.00000341 
Ti       0.00000000      11.65117152       3.49146154       0.00000831      -0.16424334      -0.00000003 
Ti       5.75084787      11.65117152       3.49146154       0.00000900      -0.16424030      -0.00000351 
Ti       0.00000000       1.69041082       8.14674359       0.00000834      -0.16424763       0.00015292 
Ti       5.75084787       1.69041082       8.14674359       0.00000831      -0.16424720      -0.00000003 
Ti      11.50169574       1.69041082       8.14674359       0.00000831      -0.16424720      -0.00000003 
Ti      -2.87542393       6.67079117       8.14674359       0.00000829      -0.16424718       0.00000271 
Ti       2.87542394       6.67079117       8.14674359       0.00000833      -0.16424718       0.00000274 
Ti       8.62627180       6.67079117       8.14674359       0.00000831      -0.16424720      -0.00000003 
Ti      -5.75084787      11.65117152       8.14674359       0.00000831      -0.16424720      -0.00000003 
Ti       0.00000000      11.65117152       8.14674359       0.00000831      -0.16424720      -0.00000003 
Ti       5.75084787      11.65117152       8.14674359       0.00000831      -0.16424720      -0.00000003 
Ti       0.00000000       1.69041082      12.80202564      -0.00021198      -0.15915615       0.00750301 
Ti       5.75084787       1.69041082      12.80202564       0.00011388      -0.16426885      -0.00005394 
Ti      11.50169574       1.69041082      12.80202564       0.00031170      -0.16420233       0.00005258 
Ti      -2.87542393       6.67079117      12.80202564       0.00039443      -0.16474457       0.00026242 
Ti       2.87542394       6.67079117      12.80202564      -0.00006043      -0.16415004      -0.00015721 
Ti       8.62627180       6.67079117      12.80202564       0.00000899      -0.16424728      -0.00000003 
Ti      -5.75084787      11.65117152      12.80202564       0.00000898      -0.16425404      -0.00000352 
Ti       0.00000000      11.65117152      12.80202564       0.00000831      -0.16425107      -0.00000003 
Ti       5.75084787      11.65117152      12.80202564       0.00001929      -0.16421236       0.00000340 
Al       0.00776968       3.32025523       1.17011236      -0.05250597      -0.00008921      -0.04665060 
Al       5.75084499       3.32025523       1.16382051      -0.00003993       0.00000505      -0.00005441 
Al      11.50169286       3.32025523       1.16382051      -0.00003923      -0.00002744      -0.00005282 
Al      -2.87542681       8.30063558       1.16382051      -0.00004128       0.00000473      -0.00005319 
Al       2.87542106       8.30063558       1.16382051      -0.00004170      -0.00002556      -0.00005403 
Al       8.62626893       8.30063558       1.16382051       0.00002098      -0.00001101       0.00000004 
Al      -5.75085075      13.28101593       1.16382051      -0.00004159      -0.00002898      -0.00005398 
Al      -0.00000288      13.28101593       1.16382051       0.00002098      -0.00001105       0.00000004 
Al       5.75084499      13.28101593       1.16382051      -0.00004138       0.00000572      -0.00005323 
Al      -0.00000288       3.32025523       5.81910256       0.00009719      -0.00001073      -0.00051575 
Al       5.75084499       3.32025523       5.81910256       0.00010110      -0.00000206       0.00007288 
Al      11.50169286       3.32025523       5.81910256       0.00003006      -0.00001297      -0.00001489 
Al      -2.87542681       8.30063558       5.81910256       0.00000169      -0.00000165       0.00001064 
Al       2.87542106       8.30063558       5.81910256       0.00004309       0.00003724       0.00004685 
Al       8.62626893       8.30063558       5.81910256       0.00001914      -0.00001104       0.00000004 
Al      -5.75085075      13.28101593       5.81910256       0.00003694      -0.00007385       0.00005449 
Al      -0.00000288      13.28101593       5.81910256       0.00001914      -0.00001104       0.00000004 
Al       5.75084499      13.28101593       5.81910256       0.00000789      -0.00001304       0.00000293 
Al      -0.00000288       3.32025523      10.47438461       0.00009503      -0.00001072      -0.00051659 
Al       5.75084499       3.32025523      10.47438461       0.00002997      -0.00000918      -0.00001491 
Al      11.50169286       3.32025523      10.47438461       0.00009965      -0.00002023       0.00007116 
Al      -2.87542681       8.30063558      10.47438461       0.00004305      -0.00005857       0.00004603 
Al       2.87542106       8.30063558      10.47438461       0.00000164      -0.00002052       0.00001072 
Al       8.62626893       8.30063558      10.47438461       0.00001914      -0.00001104       0.00000004 
Al      -5.75085075      13.28101593      10.47438461       0.00000789      -0.00000893       0.00000303 
Al      -0.00000288      13.28101593      10.47438461       0.00001914      -0.00001104       0.00000004 
Al       5.75084499      13.28101593      10.47438461       0.00003675       0.00005111       0.00005379 
Al       2.87542681       1.66012512       3.49146154      -0.00083267       0.00061626      -0.00063612 
Al       8.62627468       1.66012512       3.49146154      -0.00001497       0.00001050      -0.00000002 
Al      14.37712255       1.66012512       3.49146154      -0.00001671      -0.00012079       0.00037677 
Al       0.00000288       6.64050547       3.49146154       0.00021361      -0.00045859      -0.00012700 
Al       5.75085075       6.64050547       3.49146154       0.00007440       0.00007351       0.00003230 
Al      11.50169861       6.64050547       3.49146154       0.00002106      -0.00002036      -0.00003210 
Al      -2.87542106      11.62088582       3.49146154      -0.00001794       0.00000930       0.00000052 
Al       2.87542681      11.62088582       3.49146154      -0.00001885       0.00001326      -0.00000058 
Al       8.62627468      11.62088582       3.49146154      -0.00003356      -0.00001916      -0.00000024 
Al       2.87542681       1.66012512       8.14674359      -0.00001899       0.00001097       0.00003115 
Al       8.62627468       1.66012512       8.14674359      -0.00001909       0.00001103      -0.00000004 
Al      14.37712255       1.66012512       8.14674359      -0.00001923       0.00001094       0.00003085 
Al       0.00000288       6.64050547       8.14674359      -0.00001909       0.00001117       0.00003100 
Al       5.75085075       6.64050547       8.14674359      -0.00001909       0.00001103      -0.00000004 
Al      11.50169861       6.64050547       8.14674359      -0.00001909       0.00001103      -0.00000004 
Al      -2.87542106      11.62088582       8.14674359      -0.00001909       0.00001103      -0.00000004 
Al       2.87542681      11.62088582       8.14674359      -0.00001909       0.00001103      -0.00000004 
Al       8.62627468      11.62088582       8.14674359      -0.00001909       0.00001103      -0.00000004 
Al       2.87542681       1.66012512      12.80202564      -0.00000944       0.00013954       0.00037340 
Al       8.62627468       1.66012512      12.80202564      -0.00001503       0.00001152      -0.00000005 
Al      14.37712255       1.66012512      12.80202564      -0.00082813      -0.00058785      -0.00063304 
Al       0.00000288       6.64050547      12.80202564       0.00021115       0.00048515      -0.00013248 
Al       5.75085075       6.64050547      12.80202564       0.00002142       0.00004280      -0.00003270 
Al      11.50169861       6.64050547      12.80202564       0.00007235      -0.00004984       0.00003171 
Al      -2.87542106      11.62088582      12.80202564      -0.00001884       0.00000882      -0.00000059 
Al       2.87542681      11.62088582      12.80202564      -0.00001797       0.00001271       0.00000051 
Al       8.62627468      11.62088582      12.80202564      -0.00003335       0.00004103      -0.00000016 
