216
Lattice="17.25254361 0.0 0.0 -8.626271804999996 14.94114104615889 0.0 0.0 0.0 13.96584615" Properties=species:S:1:pos:R:3:forces:R:3 pbc="T T T"
Ti       2.87542394       3.28996953       1.16382051      -0.01156994       0.16465485       0.00003011 
Ti       8.62627181       3.28996953       1.16382051      -0.00000984       0.16424721       0.00000021 
Ti      14.37711968       3.28996953       1.16382051      -0.01200258       0.16383444       0.00007819 
Ti       0.00000000       8.27034988       1.16382051       0.00011537       0.16424685       0.00018669 
Ti       5.75084788       8.27034988       1.16382051      -0.00002636       0.16422457       0.00000130 
Ti      11.50169575       8.27034988       1.16382051      -0.00002682       0.16427057       0.00000136 
Ti      -2.87542393      13.25073023       1.16382051      -0.00003291       0.16427923       0.00000409 
Ti       2.87542394      13.25073023       1.16382051      -0.00003332       0.16421454       0.00000417 
Ti       8.62627181      13.25073023       1.16382051       0.00011583       0.16424748       0.00008957 
Ti       2.87542394       3.28996953       5.81910256      -0.00017614       0.16417373      -0.00040541 
Ti       8.62627181       3.28996953       5.81910256      -0.00000874       0.16424724      -0.00000006 
Ti      14.37711968       3.28996953       5.81910256       0.00011569       0.16427117       0.00002678 
Ti       0.00000000       8.27034988       5.81910256      -0.00000188       0.16417499      -0.00008477 
Ti       5.75084788       8.27034988       5.81910256      -0.00001031       0.16424591      -0.00000163 
Ti      11.50169575       8.27034988       5.81910256      -0.00000879       0.16424753       0.00000041 
Ti      -2.87542393      13.25073023       5.81910256      -0.00001470       0.16425446      -0.00000507 
Ti       2.87542394      13.25073023       5.81910256      -0.00000963       0.16424570       0.00000106 
Ti       8.62627181      13.25073023       5.81910256       0.00000632       0.16428976      -0.00003896 
Ti       2.87542394       3.28996953      10.47438461       0.00011645       0.16422316       0.00002680 
Ti       8.62627181       3.28996953      10.47438461      -0.00000875       0.16424717      -0.00000007 
Ti      14.37711968       3.28996953      10.47438461      -0.00017471       0.16432205      -0.00040635 
Ti       0.00000000       8.27034988      10.47438461      -0.00000168       0.16431966      -0.00008479 
Ti       5.75084788       8.27034988      10.47438461      -0.00000879       0.16424688       0.00000041 
Ti      11.50169575       8.27034988      10.47438461      -0.00001038       0.16424856      -0.00000169 
Ti      -2.87542393      13.25073023      10.47438461      -0.00000964       0.16424873       0.00000108 
Ti       2.87542394      13.25073023      10.47438461      -0.00001479       0.16423985      -0.00000514 
Ti       8.62627181      13.25073023      10.47438461       0.00000665       0.16420423      -0.00003943 
Ti      -1.41148523       4.13517494       3.49146154      -0.14094488       0.08151223      -0.00182364 
Ti       4.33936264       4.13517494       3.49146154      -0.14306126       0.08183407      -0.00038080 
Ti      10.09021051       4.13517494       3.49146154      -0.14227655       0.08212923       0.00000798 
Ti      -4.28690916       9.11555529       3.49146154      -0.14224888       0.08213475       0.00000447 
Ti       1.46393871       9.11555529       3.49146154      -0.14227488       0.08199833      -0.00001123 
Ti       7.21478658       9.11555529       3.49146154      -0.14224705       0.08212601      -0.00000012 
Ti      -7.16233310      14.09593564       3.49146154      -0.14222238       0.08268868      -0.00016982 
Ti      -1.41148523      14.09593564       3.49146154      -0.14225694       0.08213211      -0.00000144 
Ti       4.33936264      14.09593564       3.49146154      -0.14228117       0.08205340       0.00004240 
Ti      -1.41148523       4.13517494       8.14674359      -0.14224710       0.08212641      -0.00015348 
Ti       4.33936264       4.13517494       8.14674359      -0.14224673       0.08212623      -0.00000276 
Ti      10.09021051       4.13517494       8.14674359      -0.14224676       0.08212623      -0.00000003 
Ti      -4.28690916       9.11555529       8.14674359      -0.14224676       0.08212623      -0.00000003 
Ti       1.46393871       9.11555529       8.14674359      -0.14224676       0.08212623      -0.00000003 
Ti       7.21478658       9.11555529       8.14674359      -0.14224676       0.08212623      -0.00000003 
Ti      -7.16233310      14.09593564       8.14674359      -0.14224675       0.08212620      -0.00000277 
Ti      -1.41148523      14.09593564       8.14674359      -0.14224676       0.08212623      -0.00000003 
Ti       4.33936264      14.09593564       8.14674359      -0.14224676       0.08212623      -0.00000003 
Ti      -1.41148523       4.13517494      12.80202564      -0.15002004       0.08678046      -0.01362267 
Ti       4.33936264       4.13517494      12.80202564      -0.14248663       0.08202509       0.00027409 
Ti      10.09021051       4.13517494      12.80202564      -0.14230706       0.08213439      -0.00000799 
Ti      -4.28690916       9.11555529      12.80202564      -0.14226840       0.08215833      -0.00000447 
Ti       1.46393871       9.11555529      12.80202564      -0.14219562       0.08218294       0.00001147 
Ti       7.21478658       9.11555529      12.80202564      -0.14224691       0.08212592       0.00000007 
Ti      -7.16233310      14.09593564      12.80202564      -0.14210086       0.08209911       0.00006497 
Ti      -1.41148523      14.09593564      12.80202564      -0.14225031       0.08212828       0.00000139 
Ti       4.33936264      14.09593564      12.80202564      -0.14240286       0.08189139      -0.00004216 
Ti       1.41148523       4.13517494       3.49146154       0.13477126       0.07768371      -0.01305739 
Ti       7.16233310       4.13517494       3.49146154       0.14218818       0.08210834      -0.00000782 
Ti      12.91318097       4.13517494       3.49146154       0.14200992       0.08221604       0.00027300 
Ti      -1.46393870       9.11555529       3.49146154       0.14229763       0.08205942       0.00001143 
Ti       4.28690917       9.11555529       3.49146154       0.14222521       0.08208520      -0.00000442 
Ti      10.03775704       9.11555529       3.49146154       0.14224621       0.08211671       0.00000007 
Ti      -4.33936264      14.09593564       3.49146154       0.14209169       0.08234906      -0.00004146 
Ti       1.41148523      14.09593564       3.49146154       0.14224279       0.08211433       0.00000143 
Ti       7.16233310      14.09593564       3.49146154       0.14239200       0.08214489       0.00006436 
Ti       1.41148523       4.13517494       8.14674359       0.14224677       0.08211665      -0.00015248 
Ti       7.16233310       4.13517494       8.14674359       0.14224637       0.08211640      -0.00000003 
Ti      12.91318097       4.13517494       8.14674359       0.14224634       0.08211641      -0.00000280 
Ti      -1.46393870       9.11555529       8.14674359       0.14224637       0.08211640      -0.00000003 
Ti       4.28690917       9.11555529       8.14674359       0.14224637       0.08211640      -0.00000003 
Ti      10.03775704       9.11555529       8.14674359       0.14224637       0.08211640      -0.00000003 
Ti      -4.33936264      14.09593564       8.14674359       0.14224637       0.08211640      -0.00000003 
Ti       1.41148523      14.09593564       8.14674359       0.14224637       0.08211640      -0.00000003 
Ti       7.16233310      14.09593564       8.14674359       0.14224636       0.08211637      -0.00000279 
Ti       1.41148523       4.13517494      12.80202564       0.14352476       0.08271017      -0.00175483 
Ti       7.16233310       4.13517494      12.80202564       0.14221704       0.08211340       0.00000781 
Ti      12.91318097       4.13517494      12.80202564       0.14144368       0.08240701      -0.00037410 
Ti      -1.46393870       9.11555529      12.80202564       0.14221887       0.08224527      -0.00001118 
Ti       4.28690917       9.11555529      12.80202564       0.14224423       0.08210793       0.00000441 
Ti      10.03775704       9.11555529      12.80202564       0.14224606       0.08211663      -0.00000012 
Ti      -4.33936264      14.09593564      12.80202564       0.14221181       0.08218898       0.00004170 
Ti       1.41148523      14.09593564      12.80202564       0.14223603       0.08211043      -0.00000148 
Ti       7.16233310      14.09593564      12.80202564       0.14227387       0.08155536      -0.00016736 
Ti       1.46393871       0.84520541       1.16382051      -0.14538753      -0.07706108       0.00004034 
Ti       7.21478658       0.84520541       1.16382051      -0.14229178      -0.08210803       0.00000408 
Ti      12.96563445       0.84520541       1.16382051      -0.14281420      -0.08251564       0.00018817 
Ti      -1.41148522       5.82558576       1.16382051      -0.14494712      -0.07695321       0.00006436 
Ti       4.33936264       5.82558576       1.16382051      -0.14273738      -0.08247120       0.00008779 
Ti      10.09021051       5.82558576       1.16382051      -0.14228242      -0.08210809       0.00000137 
Ti      -4.28690916      10.80596611       1.16382051      -0.14224659      -0.08211563       0.00000021 
Ti       1.46393871      10.80596611       1.16382051      -0.14224642      -0.08212272       0.00000412 
Ti       7.21478658      10.80596611       1.16382051      -0.14224623      -0.08212390       0.00000134 
Ti       1.46393871       0.84520541       5.81910256      -0.14221931      -0.08192770      -0.00032916 
Ti       7.21478658       0.84520541       5.81910256      -0.14225596      -0.08211443      -0.00000514 
Ti      12.96563445       0.84520541       5.81910256      -0.14225726      -0.08212644       0.00003450 
Ti      -1.41148522       5.82558576       5.81910256      -0.14212227      -0.08219272      -0.00011349 
Ti       4.33936264       5.82558576       5.81910256      -0.14231078      -0.08216188      -0.00008512 
Ti      10.09021051       5.82558576       5.81910256      -0.14224743      -0.08211582       0.00000085 
Ti      -4.28690916      10.80596611       5.81910256      -0.14224653      -0.08211624      -0.00000003 
Ti       1.46393871      10.80596611       5.81910256      -0.14224761      -0.08212018      -0.00000209 
Ti       7.21478658      10.80596611       5.81910256      -0.14224632      -0.08211608      -0.00000019 
Ti       1.46393871       0.84520541      10.47438461      -0.14211621      -0.08220463      -0.00004862 
Ti       7.21478658       0.84520541      10.47438461      -0.14224846      -0.08211594       0.00000115 
Ti      12.96563445       0.84520541      10.47438461      -0.14238326      -0.08219930      -0.00020516 
Ti      -1.41148522       5.82558576      10.47438461      -0.14231063      -0.08196629      -0.00026477 
Ti       4.33936264       5.82558576      10.47438461      -0.14223749      -0.08211976       0.00000808 
Ti      10.09021051       5.82558576      10.47438461      -0.14224913      -0.08211494      -0.00000215 
Ti      -4.28690916      10.80596611      10.47438461      -0.14224648      -0.08211620      -0.00000010 
Ti       1.46393871      10.80596611      10.47438461      -0.14224514      -0.08211286      -0.00000195 
Ti       7.21478658      10.80596611      10.47438461      -0.14224640      -0.08211795      -0.00000108 
Ti       4.28690916       0.84520541       1.16382051       0.14167281      -0.08172342       0.00018521 
Ti      10.03775703       0.84520541       1.16382051       0.14220047      -0.08213475       0.00000417 
Ti      15.78860490       0.84520541       1.16382051       0.13910019      -0.08724468       0.00006707 
Ti       1.41148523       5.82558576       1.16382051       0.13954894      -0.08723742       0.00004303 
Ti       7.16233310       5.82558576       1.16382051       0.14221190      -0.08213434       0.00000128 
Ti      12.91318097       5.82558576       1.16382051       0.14176125      -0.08177387       0.00009135 
Ti      -1.46393871      10.80596611       1.16382051       0.14224684      -0.08211995       0.00000413 
Ti       4.28690916      10.80596611       1.16382051       0.14224662      -0.08212699       0.00000021 
Ti      10.03775703      10.80596611       1.16382051       0.14224696      -0.08211873       0.00000131 
Ti       4.28690916       0.84520541       5.81910256       0.14211120      -0.08204426      -0.00020334 
Ti      10.03775703       0.84520541       5.81910256       0.14224477      -0.08212669       0.00000114 
Ti      15.78860490       0.84520541       5.81910256       0.14237670      -0.08203819      -0.00004998 
Ti       1.41148523       5.82558576       5.81910256       0.14218206      -0.08227738      -0.00026650 
Ti       7.16233310       5.82558576       5.81910256       0.14224421      -0.08212762      -0.00000205 
Ti      12.91318097       5.82558576       5.81910256       0.14225587      -0.08212285       0.00000810 
Ti      -1.46393871      10.80596611       5.81910256       0.14224807      -0.08212977      -0.00000195 
Ti       4.28690916      10.80596611       5.81910256       0.14224674      -0.08212642      -0.00000010 
Ti      10.03775703      10.80596611       5.81910256       0.14224681      -0.08212471      -0.00000105 
Ti       4.28690916       0.84520541      10.47438461       0.14223577      -0.08211606       0.00003488 
Ti      10.03775703       0.84520541      10.47438461       0.14223712      -0.08212824      -0.00000522 
Ti      15.78860490       0.84520541      10.47438461       0.14227518      -0.08231632      -0.00033042 
Ti       1.41148523       5.82558576      10.47438461       0.14237208      -0.08204908      -0.00011343 
Ti       7.16233310       5.82558576      10.47438461       0.14224580      -0.08212680       0.00000084 
Ti      12.91318097       5.82558576      10.47438461       0.14218101      -0.08207945      -0.00008785 
Ti      -1.46393871      10.80596611      10.47438461       0.14224561      -0.08212244      -0.00000209 
Ti       4.28690916      10.80596611      10.47438461       0.14224668      -0.08212640      -0.00000003 
Ti      10.03775703      10.80596611      10.47438461       0.14224690      -0.08212654      -0.00000019 
Ti       0.00000000       1.69041082       3.49146154       0.00022858      -0.15915614      -0.00750309 
Ti       5.75084787       1.69041082       3.49146154      -0.00029508      -0.16420233      -0.00005263 
Ti      11.50169574       1.69041082       3.49146154      -0.00009727      -0.16426885       0.00005388 
Ti      -2.87542393       6.67079117       3.49146154       0.00007705      -0.16415004       0.00015716 
Ti       2.87542394       6.67079117       3.49146154      -0.00037782      -0.16474457      -0.00026248 
Ti       8.62627180       6.67079117       3.49146154       0.00000763      -0.16424728      -0.00000002 
Ti      -5.75084787      11.65117152       3.49146154      -0.00000268      -0.16421236      -0.00000346 
Ti       0.00000000      11.65117152       3.49146154       0.00000831      -0.16425107      -0.00000003 
Ti       5.75084787      11.65117152       3.49146154       0.00000764      -0.16425404       0.00000346 
Ti       0.00000000       1.69041082       8.14674359       0.00000828      -0.16424763      -0.00015298 
Ti       5.75084787       1.69041082       8.14674359       0.00000831      -0.16424720      -0.00000003 
Ti      11.50169574       1.69041082       8.14674359       0.00000831      -0.16424720      -0.00000003 
Ti      -2.87542393       6.67079117       8.14674359       0.00000829      -0.16424718      -0.00000279 
Ti       2.87542394       6.67079117       8.14674359       0.00000833      -0.16424718      -0.00000277 
Ti       8.62627180       6.67079117       8.14674359       0.00000831      -0.16424720      -0.00000003 
Ti      -5.75084787      11.65117152       8.14674359       0.00000831      -0.16424720      -0.00000003 
Ti       0.00000000      11.65117152       8.14674359       0.00000831      -0.16424720      -0.00000003 
Ti       5.75084787      11.65117152       8.14674359       0.00000831      -0.16424720      -0.00000003 
Ti       0.00000000       1.69041082      12.80202564       0.00027712      -0.16944860      -0.00762334 
Ti       5.75084787       1.69041082      12.80202564      -0.00009680      -0.16422580       0.00005287 
Ti      11.50169574       1.69041082      12.80202564      -0.00029883      -0.16429376      -0.00005363 
Ti      -2.87542393       6.67079117      12.80202564      -0.00037065      -0.16375366      -0.00025919 
Ti       2.87542394       6.67079117      12.80202564       0.00007578      -0.16434389       0.00015668 
Ti       8.62627180       6.67079117      12.80202564       0.00000762      -0.16424711      -0.00000003 
Ti      -5.75084787      11.65117152      12.80202564       0.00000761      -0.16424030       0.00000345 
Ti       0.00000000      11.65117152      12.80202564       0.00000831      -0.16424334      -0.00000003 
Ti       5.75084787      11.65117152      12.80202564      -0.00000289      -0.16428262      -0.00000347 
Al      -0.00777544       3.32025523       1.15752866       0.05254426      -0.00008934       0.04665067 
Al       5.75084499       3.32025523       1.16382051       0.00007751      -0.00002744       0.00005289 
Al      11.50169286       3.32025523       1.16382051       0.00007821       0.00000505       0.00005448 
Al      -2.87542681       8.30063558       1.16382051       0.00007998      -0.00002556       0.00005410 
Al       2.87542106       8.30063558       1.16382051       0.00007956       0.00000473       0.00005326 
Al       8.62626893       8.30063558       1.16382051       0.00001730      -0.00001101       0.00000004 
Al      -5.75085075      13.28101593       1.16382051       0.00007966       0.00000572       0.00005331 
Al      -0.00000288      13.28101593       1.16382051       0.00001730      -0.00001105       0.00000004 
Al       5.75084499      13.28101593       1.16382051       0.00007987      -0.00002898       0.00005406 
Al      -0.00000288       3.32025523       5.81910256      -0.00005675      -0.00001072       0.00051667 
Al       5.75084499       3.32025523       5.81910256      -0.00006137      -0.00002023      -0.00007109 
Al      11.50169286       3.32025523       5.81910256       0.00000832      -0.00000918       0.00001499 
Al      -2.87542681       8.30063558       5.81910256       0.00003664      -0.00002052      -0.00001064 
Al       2.87542106       8.30063558       5.81910256      -0.00000477      -0.00005857      -0.00004596 
Al       8.62626893       8.30063558       5.81910256       0.00001914      -0.00001104       0.00000004 
Al      -5.75085075      13.28101593       5.81910256       0.00000153       0.00005111      -0.00005372 
Al      -0.00000288      13.28101593       5.81910256       0.00001914      -0.00001104       0.00000004 
Al       5.75084499      13.28101593       5.81910256       0.00003039      -0.00000893      -0.00000296 
Al      -0.00000288       3.32025523      10.47438461      -0.00005891      -0.00001073       0.00051582 
Al       5.75084499       3.32025523      10.47438461       0.00000823      -0.00001297       0.00001496 
Al      11.50169286       3.32025523      10.47438461      -0.00006282      -0.00000206      -0.00007281 
Al      -2.87542681       8.30063558      10.47438461      -0.00000481       0.00003724      -0.00004678 
Al       2.87542106       8.30063558      10.47438461       0.00003659      -0.00000165      -0.00001056 
Al       8.62626893       8.30063558      10.47438461       0.00001914      -0.00001104       0.00000004 
Al      -5.75085075      13.28101593      10.47438461       0.00003039      -0.00001304      -0.00000286 
Al      -0.00000288      13.28101593      10.47438461       0.00001914      -0.00001104       0.00000004 
Al       5.75084499      13.28101593      10.47438461       0.00000134      -0.00007385      -0.00005442 
Al       2.87542681       1.66012512       3.49146154       0.00078995      -0.00058784       0.00063296 
Al       8.62627468       1.66012512       3.49146154      -0.00002315       0.00001152      -0.00000002 
Al      14.37712255       1.66012512       3.49146154      -0.00002874       0.00013954      -0.00037347 
Al       0.00000288       6.64050547       3.49146154      -0.00024932       0.00048516       0.00013241 
Al       5.75085075       6.64050547       3.49146154      -0.00011053      -0.00004984      -0.00003178 
Al      11.50169861       6.64050547       3.49146154      -0.00005960       0.00004280       0.00003263 
Al      -2.87542106      11.62088582       3.49146154      -0.00002021       0.00001271      -0.00000058 
Al       2.87542681      11.62088582       3.49146154      -0.00001934       0.00000882       0.00000052 
Al       8.62627468      11.62088582       3.49146154      -0.00000484       0.00004103       0.00000008 
Al       2.87542681       1.66012512       8.14674359      -0.00001895       0.00001094      -0.00003092 
Al       8.62627468       1.66012512       8.14674359      -0.00001909       0.00001103      -0.00000004 
Al      14.37712255       1.66012512       8.14674359      -0.00001919       0.00001097      -0.00003122 
Al       0.00000288       6.64050547       8.14674359      -0.00001910       0.00001117      -0.00003107 
Al       5.75085075       6.64050547       8.14674359      -0.00001909       0.00001103      -0.00000004 
Al      11.50169861       6.64050547       8.14674359      -0.00001909       0.00001103      -0.00000004 
Al      -2.87542106      11.62088582       8.14674359      -0.00001909       0.00001103      -0.00000004 
Al       2.87542681      11.62088582       8.14674359      -0.00001909       0.00001103      -0.00000004 
Al       8.62627468      11.62088582       8.14674359      -0.00001909       0.00001103      -0.00000004 
Al       2.87542681       1.66012512      12.80202564      -0.00002147      -0.00012079      -0.00037684 
Al       8.62627468       1.66012512      12.80202564      -0.00002321       0.00001050      -0.00000005 
Al      14.37712255       1.66012512      12.80202564       0.00079449       0.00061627       0.00063605 
Al       0.00000288       6.64050547      12.80202564      -0.00025179      -0.00045858       0.00012692 
Al       5.75085075       6.64050547      12.80202564      -0.00005924      -0.00002036       0.00003202 
Al      11.50169861       6.64050547      12.80202564      -0.00011259       0.00007351      -0.00003237 
Al      -2.87542106      11.62088582      12.80202564      -0.00001933       0.00001326       0.00000051 
Al       2.87542681      11.62088582      12.80202564      -0.00002024       0.00000930      -0.00000059 
Al       8.62627468      11.62088582      12.80202564      -0.00000462      -0.00001916       0.00000017 
