 +-------------------------------------------------+
 |                                                 |
 |      CCC   AA    SSS  TTTTT  EEEEE  PPPP        |
 |     C     A  A  S       T    E      P   P       |
 |     C     AAAA   SS     T    EEE    PPPP        |
 |     C     A  A     S    T    E      P           |
 |      CCC  A  A  SSS     T    EEEEE  P           |
 |                                                 |
 +-------------------------------------------------+
 |                                                 |
 | Welcome to Academic Release CASTEP version 17.21|          
 | Ab Initio Total Energy Program                  |
 |                                                 |
 | Authors:                                        |
 | M. Segall, M. Probert, C. Pickard, P. Hasnip,   |
 | S. Clark, K. Refson, J. R. Yates, M. Payne      |
 |                                                 |
 | Contributors:                                   |
 | P. Lindan, P. Haynes, J. White, V. Milman,      |
 | N. Govind, M. Gibson, P. Tulip, V. Cocula,      |
 | B. Montanari, D. Quigley, M. Glover,            |
 | L. Bernasconi, A. Perlov, M. Plummer,           |
 | E. McNellis, J. Meyer, J. Gale, D. Jochym       |
 | J. Aarons, B. Walker, R. Gillen, D. Jones       |
 | T. Green, I. J. Bush, C. J. Armstrong,          |
 | E. J. Higgins, E. L. Brown, M. S. McFly,        |
 | J. Wilkins, B-C. Shih, P. J. P. Byrne           |
 |                                                 |
 | Copyright (c) 2000 - 2017                       |
 |                                                 |
 |     Distributed under the terms of an           |
 |     Agreement between the United Kingdom        |
 |     Car-Parrinello (UKCP) Consortium,           |
 |     Daresbury Laboratory and Accelrys, Inc.     |
 |                                                 |
 | Please cite                                     |
 |                                                 |
 |     "First principles methods using CASTEP"     |
 |                                                 |
 |         Zeitschrift fuer Kristallographie       |
 |           220(5-6) pp. 567-570 (2005)           |
 |                                                 |
 | S. J. Clark, M. D. Segall, C. J. Pickard,       |
 | P. J. Hasnip, M. J. Probert, K. Refson,         |
 | M. C. Payne                                     |
 |                                                 |
 |       in all publications arising from          |
 |              your use of CASTEP                 |
 |                                                 |
 +-------------------------------------------------+


 Compiled for linux_x86_64_gfortran6.0-XT on Fri, 21 Jul 2017 10:20:05 +0100
 from code version 056e886bd5a1+ Castep172_branch Mon, 15 May 2017 14:45:35 +0100
 Compiler: GNU Fortran 6.3.0; Optimisation: fast
 MATHLIBS: Intel MKL(2017.0.0) (LAPACK version 3.6.0)
 FFT Lib : fftw3 version commercial-fftw-3.3.4-sse2-avx
 Fundamental constants values: CODATA 2010

 Run started: Wed, 04 Dec 2019 16:05:33 +0000

 Atomic calculation performed for Al: 1s2 2s2 2p6 3s2 3p1

 Converged in 55 iterations to an ae energy of -6578.725 eV

   ============================================================                
   | Pseudopotential Report - Date of generation  4-12-2019   |                
   ------------------------------------------------------------                
   | Element: Al Ionic charge:  3.00 Level of theory: LDA     |                
   | Atomic Solver: Koelling-Harmon                           |                
   |                                                          |                
   |               Reference Electronic Structure             |                
   |         Orbital         Occupation         Energy        |                
   |            3s              2.000           -0.288        |                
   |            3p              1.000           -0.102        |                
   |                                                          |                
   |                 Pseudopotential Definition               |                
   |        Beta     l      e      Rc     scheme   norm       |                
   |          1      0   -0.288   2.192     qc      0         |                
   |          2      0    0.250   2.192     qc      0         |                
   |          3      1   -0.102   2.192     qc      0         |                
   |          4      1    0.250   2.192     qc      0         |                
   |          5      2    0.000   2.000     qc      0         |                
   |          6      2    0.250   2.000     qc      0         |                
   |         loc     3    0.000   2.192     pn      0         |                
   |                                                          |                
   | Augmentation charge Rinner = 1.398                       |                
   | Partial core correction Rc = 1.398                       |                
   ------------------------------------------------------------                
   | "3|2.2|2.2|1.4|4|5|5|30:31:32U2U2"                       |                
   ------------------------------------------------------------                
   |      Author: Chris J. Pickard, Cambridge University      |                
   ============================================================                

 Atomic calculation performed for Ti: 1s2 2s2 2p6 3s2 3p6 3d2 4s2

 Converged in 78 iterations to an ae energy of -23176.516 eV

   ============================================================                
   | Pseudopotential Report - Date of generation  4-12-2019   |                
   ------------------------------------------------------------                
   | Element: Ti Ionic charge: 12.00 Level of theory: LDA     |                
   | Atomic Solver: Koelling-Harmon                           |                
   |                                                          |                
   |               Reference Electronic Structure             |                
   |         Orbital         Occupation         Energy        |                
   |            3s              2.000           -2.288        |                
   |            3p              6.000           -1.425        |                
   |            4s              2.000           -0.169        |                
   |            3d              2.000           -0.164        |                
   |                                                          |                
   |                 Pseudopotential Definition               |                
   |        Beta     l      e      Rc     scheme   norm       |                
   |          1      0   -2.288   1.793     qc      0         |                
   |          2      0   -0.169   1.793     qc      0         |                
   |          3      0    0.250   1.793     qc      0         |                
   |          4      1   -1.425   1.793     qc      0         |                
   |          5      1    0.250   1.793     qc      0         |                
   |          6      2   -0.164   1.793     qc      0         |                
   |          7      2    0.250   1.793     qc      0         |                
   |         loc     3    0.000   1.793     pn      0         |                
   |                                                          |                
   | Augmentation charge Rinner = 1.263                       |                
   | Partial core correction Rc = 1.263                       |                
   ------------------------------------------------------------                
   | "3|1.8|9|10|11|30U:40:31:32(qc=5.5)"                     |                
   ------------------------------------------------------------                
   |      Author: Chris J. Pickard, Cambridge University      |                
   ============================================================                

 Pseudo atomic calculation performed for Al 3s2 3p1

 Converged in 15 iterations to a total energy of -105.5951 eV


 Pseudo atomic calculation performed for Ti 3s2 3p6 3d2 4s2

 Converged in 31 iterations to a total energy of -1585.9719 eV

 Calculation parallelised over 48 processes.
 Data is distributed by k-point(48-way)

 ************************************ Title ************************************
 

 ***************************** General Parameters ******************************
  
 output verbosity                               : normal  (1)
 write checkpoint data to                       : castep.check
 type of calculation                            : single point energy
 stress calculation                             : on
 density difference calculation                 : off
 electron localisation func (ELF) calculation   : off
 Hirshfeld analysis                             : off
 unlimited duration calculation
 timing information                             : on
 memory usage estimate                          : on
 write final potential to formatted file        : off
 write final density to formatted file          : off
 write BibTeX reference list                    : on
 write OTFG pseudopotential files               : on
 write electrostatic potential file             : on
 write bands file                               : on
 checkpoint writing                             : off
  
 output         length unit                     : A
 output           mass unit                     : amu
 output           time unit                     : ps
 output         charge unit                     : e
 output           spin unit                     : hbar/2
 output         energy unit                     : eV
 output          force unit                     : eV/A
 output       velocity unit                     : A/ps
 output       pressure unit                     : GPa
 output     inv_length unit                     : 1/A
 output      frequency unit                     : cm-1
 output force constant unit                     : eV/A**2
 output         volume unit                     : A**3
 output   IR intensity unit                     : (D/A)**2/amu
 output         dipole unit                     : D
 output         efield unit                     : eV/A/e
 output        entropy unit                     : J/mol/K
  
 wavefunctions paging                           : none
 random number generator seed                   : randomised (160534280)
 data distribution                              : optimal for this architecture
 optimization strategy                          : balance speed and memory

 *********************** Exchange-Correlation Parameters ***********************
  
 using functional                               : Local Density Approximation
 relativistic treatment                         : Koelling-Harmon
 DFT+D: Semi-empirical dispersion correction    : off

 ************************* Pseudopotential Parameters **************************
  
 pseudopotential representation                 : reciprocal space
 <beta|phi> representation                      : reciprocal space
 spin-orbit coupling                            : off

 **************************** Basis Set Parameters *****************************
  
 plane wave basis set cut-off                   :   500.0000   eV
 size of standard grid                          :     1.7500
 size of   fine   gmax                          :    20.0476   1/A
 finite basis set correction                    : automatic
 number of sample energies                      :          3
           sample  spacing                      :     5.0000   eV

 **************************** Electronic Parameters ****************************
  
 number of  electrons                           :  15.00    
 net charge of system                           :  0.000    
 net spin   of system                           :  1.000    
 number of  up  spins                           :  8.000    
 number of down spins                           :  7.000    
 treating system as spin-polarized
 number of bands                                :         12

 ********************* Electronic Minimization Parameters **********************
  
 Method: Treating system as metallic with density mixing treatment of electrons,
         and number of  SD  steps               :          1
         and number of  CG  steps               :          4
  
 total energy / atom convergence tol.           : 0.1000E-04   eV
 eigen-energy convergence tolerance             : 0.1000E-05   eV
 max force / atom convergence tol.              : ignored
 convergence tolerance window                   :          3   cycles
 max. number of SCF cycles                      :        250
 number of fixed-spin iterations                :         10
 smearing scheme                                : Gaussian
 smearing width                                 : 0.1000       eV
 Fermi energy convergence tolerance             : 0.2721E-13   eV
 periodic dipole correction                     : NONE

 ************************** Density Mixing Parameters **************************
  
 density-mixing scheme                          : Pulay
 max. length of mixing history                  :         20
 charge density mixing amplitude                : 0.8000    
   spin density mixing amplitude                :  2.000    
 cut-off energy for mixing                      :  500.0       eV

 *********************** Population Analysis Parameters ************************
  
 Population analysis with cutoff                :  3.000       A

 *******************************************************************************
  

                           -------------------------------
                                      Unit Cell
                           -------------------------------
        Real Lattice(A)                      Reciprocal Lattice(1/A)
   3.3200000   0.0000000   0.0000000        1.8925257  -1.3382175   0.0000000
   1.6600000   2.3475950   0.0000000        0.0000000   2.6764350   0.0000000
   0.0000000   0.0000000   4.6951890        0.0000000   0.0000000   1.3382178

                       Lattice parameters(A)       Cell Angles
                    a =    3.320000          alpha =   90.000000
                    b =    2.875205          beta  =   90.000000
                    c =    4.695189          gamma =   54.735616

                       Current cell volume =   36.594375       A**3
                                   density =    2.045356   AMU/A**3
                                           =    3.396394     g/cm^3

                           -------------------------------
                                     Cell Contents
                           -------------------------------
                         Total number of ions in cell =    2
                      Total number of species in cell =    2
                        Max number of any one species =    1

            xxxxxxxxxxxxxxxxxxxxxxxxxxxxxxxxxxxxxxxxxxxxxxxxxxxxxxxxxxxx
            x  Element    Atom        Fractional coordinates of atoms  x
            x            Number           u          v          w      x
            x----------------------------------------------------------x
            x  Al           1         0.500000   0.000000   0.500000   x 
            x  Ti           1         0.000000   0.000000   0.000000   x 
            xxxxxxxxxxxxxxxxxxxxxxxxxxxxxxxxxxxxxxxxxxxxxxxxxxxxxxxxxxxx


                         No user defined ionic velocities

                           -------------------------------
                                   Details of Species
                           -------------------------------

                               Mass of species in AMU
                                    Al   26.9815400
                                    Ti   47.8670000

                          Electric Quadrupole Moment (Barn)
                                    Al    0.1466000 Isotope 27
                                    Ti    0.3020000 Isotope 47

                          Files used for pseudopotentials:
                                    Al 3|2.2|2.2|1.4|4|5|5|30:31:32U2U2
                                    Ti 3|1.8|9|10|11|30U:40:31:32(qc=5.5)

                           -------------------------------
                              k-Points For BZ Sampling
                           -------------------------------
                       MP grid size for SCF calculation is 10 11  6
                            with an offset of   0.000  0.000  0.000
                       Number of kpoints used =           330

                           -------------------------------
                               Symmetry and Constraints
                           -------------------------------

                      Maximum deviation from symmetry =  0.00000         ANG

                      Number of symmetry operations   =           1
                      Number of ionic constraints     =           3
                      Point group of crystal =     1: C1, 1, 1
                      Space group of crystal =    65: Cmmm, -C 2 2

             Set iprint > 1 for details on symmetry rotations/translations

                         Centre of mass is constrained
             Set iprint > 1 for details of linear ionic constraints

                         Number of cell constraints= 0
                         Cell constraints are:  1 2 3 4 5 6

                         External pressure/stress (GPa)
                          0.00000   0.00000   0.00000
                                    0.00000   0.00000
                                              0.00000
  
+---------------- MEMORY AND SCRATCH DISK ESTIMATES PER PROCESS --------------+
|                                                     Memory          Disk    |
| Baseline code, static data and system overhead      172.0 MB         0.0 MB |
| BLAS internal memory storage                          0.0 MB         0.0 MB |
| Model and support data                               41.5 MB        41.1 MB |
| Electronic energy minimisation requirements           9.9 MB         0.0 MB |
| Force calculation requirements                        3.2 MB         0.0 MB |
| Stress calculation requirements                       3.2 MB         0.0 MB |
|                                               ----------------------------- |
| Approx. total storage required per process          223.4 MB        41.1 MB |
|                                                                             |
| Requirements will fluctuate during execution and may exceed these estimates |
+-----------------------------------------------------------------------------+
Calculating finite basis set correction with  3 cut-off energies.
Calculating total energy with cut-off of  490.000 eV.
------------------------------------------------------------------------ <-- SCF
SCF loop      Energy           Fermi           Energy gain       Timer   <-- SCF
                               energy          per atom          (sec)   <-- SCF
------------------------------------------------------------------------ <-- SCF
Initial  -1.40863339E+003  0.00000000E+000                        16.60  <-- SCF
      1  -1.66936613E+003  8.12056745E+000   1.30366373E+002      17.14  <-- SCF
      2  -1.70297512E+003  5.98156108E+000   1.68044925E+001      17.59  <-- SCF
      3  -1.70378518E+003  6.06559425E+000   4.05029154E-001      18.04  <-- SCF
      4  -1.70360809E+003  5.95098332E+000  -8.85447259E-002      18.62  <-- SCF
      5  -1.70361356E+003  6.04641569E+000   2.73825074E-003      19.20  <-- SCF
      6  -1.70361368E+003  5.95676569E+000   5.90963394E-005      19.76  <-- SCF
      7  -1.70361292E+003  5.98715913E+000  -3.79918438E-004      20.33  <-- SCF
      8  -1.70361301E+003  5.98019205E+000   4.12801183E-005      20.87  <-- SCF
      9  -1.70361301E+003  5.97939921E+000   3.77438363E-006      21.25  <-- SCF
     10  -1.70364688E+003  5.92673882E+000   1.69338662E-002      21.63  <-- SCF
     11  -1.70367374E+003  5.86103888E+000   1.34317156E-002      22.20  <-- SCF
     12  -1.70368500E+003  5.91121810E+000   5.62909475E-003      22.74  <-- SCF
     13  -1.70368920E+003  5.86299396E+000   2.10098522E-003      23.30  <-- SCF
     14  -1.70369228E+003  5.86911409E+000   1.53725232E-003      23.86  <-- SCF
     15  -1.70369304E+003  5.86613146E+000   3.78448351E-004      24.43  <-- SCF
     16  -1.70369310E+003  5.86657870E+000   3.41457005E-005      24.87  <-- SCF
     17  -1.70369311E+003  5.86680198E+000   1.92608218E-006      25.24  <-- SCF
     18  -1.70369311E+003  5.86677474E+000   2.75158823E-007      25.61  <-- SCF
------------------------------------------------------------------------ <-- SCF
 
Integrated Spin Density     =    0.109272E-03 hbar/2                        
Integrated |Spin Density|   =    0.265487E-03 hbar/2                        
 
Final energy, E             =  -1703.683196313     eV
Final free energy (E-TS)    =  -1703.693108195     eV
(energies not corrected for finite basis set)
 
NB est. 0K energy (E-0.5TS)      =  -1703.688152254     eV
 
Calculating total energy with cut-off of  495.000 eV.
------------------------------------------------------------------------ <-- SCF
SCF loop      Energy           Fermi           Energy gain       Timer   <-- SCF
                               energy          per atom          (sec)   <-- SCF
------------------------------------------------------------------------ <-- SCF
Initial  -1.70368320E+003  0.00000000E+000                        25.93  <-- SCF
      1  -1.70369314E+003  5.86672931E+000   4.97053367E-003      26.31  <-- SCF
      2  -1.70369314E+003  5.86672931E+000   1.07452473E-008      26.69  <-- SCF
      3  -1.70369314E+003  5.86681203E+000   4.41801368E-009      27.07  <-- SCF
      4  -1.70369314E+003  5.86674136E+000   1.77493941E-010      27.45  <-- SCF
------------------------------------------------------------------------ <-- SCF
 
Integrated Spin Density     =    0.680532E-04 hbar/2                        
Integrated |Spin Density|   =    0.114442E-03 hbar/2                        
 
Final energy, E             =  -1703.683225412     eV
Final free energy (E-TS)    =  -1703.693137435     eV
(energies not corrected for finite basis set)
 
NB est. 0K energy (E-0.5TS)      =  -1703.688181423     eV
 
Calculating total energy with cut-off of  500.000 eV.
------------------------------------------------------------------------ <-- SCF
SCF loop      Energy           Fermi           Energy gain       Timer   <-- SCF
                               energy          per atom          (sec)   <-- SCF
------------------------------------------------------------------------ <-- SCF
Initial  -1.70368323E+003  0.00000000E+000                        27.76  <-- SCF
      1  -1.70369317E+003  5.86683687E+000   4.97253502E-003      28.15  <-- SCF
      2  -1.70369317E+003  5.86683687E+000   1.80877541E-009      28.53  <-- SCF
      3  -1.70369317E+003  5.86660491E+000   7.58158217E-009      28.90  <-- SCF
      4  -1.70369317E+003  5.86676055E+000  -9.70213207E-009      29.27  <-- SCF
------------------------------------------------------------------------ <-- SCF
 
Integrated Spin Density     =    0.239344E-04 hbar/2                        
Integrated |Spin Density|   =    0.381727E-04 hbar/2                        
 
Final energy, E             =  -1703.683258535     eV
Final free energy (E-TS)    =  -1703.693170481     eV
(energies not corrected for finite basis set)
 
NB est. 0K energy (E-0.5TS)      =  -1703.688214508     eV
 
 For future reference: finite basis dEtot/dlog(Ecut) =      -0.003110eV
 Total energy corrected for finite basis set =   -1703.693171 eV

 ******************* Unconstrained Forces *******************
 *                                                          *
 *               Cartesian components (eV/A)                *
 * -------------------------------------------------------- *
 *                         x            y            z      *
 *                                                          *
 * Al              1      0.00000     -0.00000     -0.00000 *
 * Ti              1     -0.00000      0.00000      0.00000 *
 *                                                          *
 ************************************************************

 ******************** Constrained Forces ********************
 *                                                          *
 *               Cartesian components (eV/A)                *
 * -------------------------------------------------------- *
 *                         x            y            z      *
 *                                                          *
 * Al              1      0.00000     -0.00000     -0.00000 *
 * Ti              1     -0.00000      0.00000      0.00000 *
 *                                                          *
 ************************************************************

 ***************** Stress Tensor *****************
 *                                               *
 *          Cartesian components (GPa)           *
 * --------------------------------------------- *
 *             x             y             z     *
 *                                               *
 *  x     12.727142      0.011868      0.000000  *
 *  y      0.011868     15.823478      0.000000  *
 *  z      0.000000      0.000000     15.147406  *
 *                                               *
 *  Pressure:  -14.5660                          *
 *                                               *
 *************************************************

 Pseudo atomic calculation performed for Al 3s2 3p1

 Converged in 15 iterations to a total energy of -105.5951 eV


 Pseudo atomic calculation performed for Ti 3s2 3p6 3d2 4s2

 Converged in 31 iterations to a total energy of -1585.9719 eV

Charge spilling parameter for spin component 1 = 0.26%
Charge spilling parameter for spin component 2 = 0.26%

     Atomic Populations (Mulliken)
     -----------------------------
Species          Ion     s      p      d      f     Total  Charge (e)  Spin (hbar/2)
==================================================================================
  Al              1     1.08   1.98   0.00   0.00   3.06    -0.06       -0.00
  Ti              1     2.36   6.82   2.76   0.00  11.94     0.06        0.00
==================================================================================

                 Bond                   Population        Spin       Length (A)
================================================================================
================================================================================

 
 A BibTeX formatted list of references used in this run has been written to 
 castep.bib
 
Initialisation time =     12.46 s
Calculation time    =     18.81 s
Finalisation time   =      0.87 s
Total time          =     32.14 s
Peak Memory Use     = 636604 kB
  
Overall parallel efficiency rating: Mediocre (59%)                              
  
Data was distributed by:-
k-point (48-way); efficiency rating: Satisfactory (60%)                         
  
Parallel notes:
1) Calculation only took 31.3 s, so efficiency estimates may be inaccurate.     
 +-------------------------------------------------+
 |                                                 |
 |      CCC   AA    SSS  TTTTT  EEEEE  PPPP        |
 |     C     A  A  S       T    E      P   P       |
 |     C     AAAA   SS     T    EEE    PPPP        |
 |     C     A  A     S    T    E      P           |
 |      CCC  A  A  SSS     T    EEEEE  P           |
 |                                                 |
 +-------------------------------------------------+
 |                                                 |
 | Welcome to Academic Release CASTEP version 17.21|          
 | Ab Initio Total Energy Program                  |
 |                                                 |
 | Authors:                                        |
 | M. Segall, M. Probert, C. Pickard, P. Hasnip,   |
 | S. Clark, K. Refson, J. R. Yates, M. Payne      |
 |                                                 |
 | Contributors:                                   |
 | P. Lindan, P. Haynes, J. White, V. Milman,      |
 | N. Govind, M. Gibson, P. Tulip, V. Cocula,      |
 | B. Montanari, D. Quigley, M. Glover,            |
 | L. Bernasconi, A. Perlov, M. Plummer,           |
 | E. McNellis, J. Meyer, J. Gale, D. Jochym       |
 | J. Aarons, B. Walker, R. Gillen, D. Jones       |
 | T. Green, I. J. Bush, C. J. Armstrong,          |
 | E. J. Higgins, E. L. Brown, M. S. McFly,        |
 | J. Wilkins, B-C. Shih, P. J. P. Byrne           |
 |                                                 |
 | Copyright (c) 2000 - 2017                       |
 |                                                 |
 |     Distributed under the terms of an           |
 |     Agreement between the United Kingdom        |
 |     Car-Parrinello (UKCP) Consortium,           |
 |     Daresbury Laboratory and Accelrys, Inc.     |
 |                                                 |
 | Please cite                                     |
 |                                                 |
 |     "First principles methods using CASTEP"     |
 |                                                 |
 |         Zeitschrift fuer Kristallographie       |
 |           220(5-6) pp. 567-570 (2005)           |
 |                                                 |
 | S. J. Clark, M. D. Segall, C. J. Pickard,       |
 | P. J. Hasnip, M. J. Probert, K. Refson,         |
 | M. C. Payne                                     |
 |                                                 |
 |       in all publications arising from          |
 |              your use of CASTEP                 |
 |                                                 |
 +-------------------------------------------------+


 Compiled for linux_x86_64_gfortran6.0-XT on Fri, 21 Jul 2017 10:20:05 +0100
 from code version 056e886bd5a1+ Castep172_branch Mon, 15 May 2017 14:45:35 +0100
 Compiler: GNU Fortran 6.3.0; Optimisation: fast
 MATHLIBS: Intel MKL(2017.0.0) (LAPACK version 3.6.0)
 FFT Lib : fftw3 version commercial-fftw-3.3.4-sse2-avx
 Fundamental constants values: CODATA 2010

 Run started: Wed, 04 Dec 2019 16:06:13 +0000

 Atomic calculation performed for Al: 1s2 2s2 2p6 3s2 3p1

 Converged in 55 iterations to an ae energy of -6578.725 eV

   ============================================================                
   | Pseudopotential Report - Date of generation  4-12-2019   |                
   ------------------------------------------------------------                
   | Element: Al Ionic charge:  3.00 Level of theory: LDA     |                
   | Atomic Solver: Koelling-Harmon                           |                
   |                                                          |                
   |               Reference Electronic Structure             |                
   |         Orbital         Occupation         Energy        |                
   |            3s              2.000           -0.288        |                
   |            3p              1.000           -0.102        |                
   |                                                          |                
   |                 Pseudopotential Definition               |                
   |        Beta     l      e      Rc     scheme   norm       |                
   |          1      0   -0.288   2.192     qc      0         |                
   |          2      0    0.250   2.192     qc      0         |                
   |          3      1   -0.102   2.192     qc      0         |                
   |          4      1    0.250   2.192     qc      0         |                
   |          5      2    0.000   2.000     qc      0         |                
   |          6      2    0.250   2.000     qc      0         |                
   |         loc     3    0.000   2.192     pn      0         |                
   |                                                          |                
   | Augmentation charge Rinner = 1.398                       |                
   | Partial core correction Rc = 1.398                       |                
   ------------------------------------------------------------                
   | "3|2.2|2.2|1.4|4|5|5|30:31:32U2U2"                       |                
   ------------------------------------------------------------                
   |      Author: Chris J. Pickard, Cambridge University      |                
   ============================================================                

 Atomic calculation performed for Ti: 1s2 2s2 2p6 3s2 3p6 3d2 4s2

 Converged in 78 iterations to an ae energy of -23176.516 eV

   ============================================================                
   | Pseudopotential Report - Date of generation  4-12-2019   |                
   ------------------------------------------------------------                
   | Element: Ti Ionic charge: 12.00 Level of theory: LDA     |                
   | Atomic Solver: Koelling-Harmon                           |                
   |                                                          |                
   |               Reference Electronic Structure             |                
   |         Orbital         Occupation         Energy        |                
   |            3s              2.000           -2.288        |                
   |            3p              6.000           -1.425        |                
   |            4s              2.000           -0.169        |                
   |            3d              2.000           -0.164        |                
   |                                                          |                
   |                 Pseudopotential Definition               |                
   |        Beta     l      e      Rc     scheme   norm       |                
   |          1      0   -2.288   1.793     qc      0         |                
   |          2      0   -0.169   1.793     qc      0         |                
   |          3      0    0.250   1.793     qc      0         |                
   |          4      1   -1.425   1.793     qc      0         |                
   |          5      1    0.250   1.793     qc      0         |                
   |          6      2   -0.164   1.793     qc      0         |                
   |          7      2    0.250   1.793     qc      0         |                
   |         loc     3    0.000   1.793     pn      0         |                
   |                                                          |                
   | Augmentation charge Rinner = 1.263                       |                
   | Partial core correction Rc = 1.263                       |                
   ------------------------------------------------------------                
   | "3|1.8|9|10|11|30U:40:31:32(qc=5.5)"                     |                
   ------------------------------------------------------------                
   |      Author: Chris J. Pickard, Cambridge University      |                
   ============================================================                

 Pseudo atomic calculation performed for Al 3s2 3p1

 Converged in 15 iterations to a total energy of -105.5951 eV


 Pseudo atomic calculation performed for Ti 3s2 3p6 3d2 4s2

 Converged in 31 iterations to a total energy of -1585.9719 eV

 Calculation parallelised over 48 processes.
 Data is distributed by k-point(48-way)

 ************************************ Title ************************************
 

 ***************************** General Parameters ******************************
  
 output verbosity                               : normal  (1)
 write checkpoint data to                       : castep.check
 type of calculation                            : single point energy
 stress calculation                             : on
 density difference calculation                 : off
 electron localisation func (ELF) calculation   : off
 Hirshfeld analysis                             : off
 unlimited duration calculation
 timing information                             : on
 memory usage estimate                          : on
 write final potential to formatted file        : off
 write final density to formatted file          : off
 write BibTeX reference list                    : on
 write OTFG pseudopotential files               : on
 write electrostatic potential file             : on
 write bands file                               : on
 checkpoint writing                             : off
  
 output         length unit                     : A
 output           mass unit                     : amu
 output           time unit                     : ps
 output         charge unit                     : e
 output           spin unit                     : hbar/2
 output         energy unit                     : eV
 output          force unit                     : eV/A
 output       velocity unit                     : A/ps
 output       pressure unit                     : GPa
 output     inv_length unit                     : 1/A
 output      frequency unit                     : cm-1
 output force constant unit                     : eV/A**2
 output         volume unit                     : A**3
 output   IR intensity unit                     : (D/A)**2/amu
 output         dipole unit                     : D
 output         efield unit                     : eV/A/e
 output        entropy unit                     : J/mol/K
  
 wavefunctions paging                           : none
 random number generator seed                   : randomised (160613813)
 data distribution                              : optimal for this architecture
 optimization strategy                          : maximize speed(+++)

 *********************** Exchange-Correlation Parameters ***********************
  
 using functional                               : Local Density Approximation
 relativistic treatment                         : Koelling-Harmon
 DFT+D: Semi-empirical dispersion correction    : off

 ************************* Pseudopotential Parameters **************************
  
 pseudopotential representation                 : reciprocal space
 <beta|phi> representation                      : reciprocal space
 spin-orbit coupling                            : off

 **************************** Basis Set Parameters *****************************
  
 plane wave basis set cut-off                   :   500.0000   eV
 size of standard grid                          :     1.7500
 size of   fine   gmax                          :    20.0476   1/A
 finite basis set correction                    : automatic
 number of sample energies                      :          3
           sample  spacing                      :     5.0000   eV

 **************************** Electronic Parameters ****************************
  
 number of  electrons                           :  15.00    
 net charge of system                           :  0.000    
 net spin   of system                           :  1.000    
 number of  up  spins                           :  8.000    
 number of down spins                           :  7.000    
 treating system as spin-polarized
 number of bands                                :         12

 ********************* Electronic Minimization Parameters **********************
  
 Method: Treating system as metallic with density mixing treatment of electrons,
         and number of  SD  steps               :          1
         and number of  CG  steps               :          4
  
 total energy / atom convergence tol.           : 0.1000E-04   eV
 eigen-energy convergence tolerance             : 0.1000E-05   eV
 max force / atom convergence tol.              : ignored
 convergence tolerance window                   :          3   cycles
 max. number of SCF cycles                      :        250
 number of fixed-spin iterations                :         10
 smearing scheme                                : Gaussian
 smearing width                                 : 0.1000       eV
 Fermi energy convergence tolerance             : 0.2721E-13   eV
 periodic dipole correction                     : NONE

 ************************** Density Mixing Parameters **************************
  
 density-mixing scheme                          : Pulay
 max. length of mixing history                  :         20
 charge density mixing amplitude                : 0.8000    
   spin density mixing amplitude                :  2.000    
 cut-off energy for mixing                      :  500.0       eV

 *********************** Population Analysis Parameters ************************
  
 Population analysis with cutoff                :  3.000       A

 *******************************************************************************
  

                           -------------------------------
                                      Unit Cell
                           -------------------------------
        Real Lattice(A)                      Reciprocal Lattice(1/A)
   3.3072850   0.0000000   0.0000000        1.8998016  -1.3021402   0.0000000
   1.6174360   2.3598130   0.0000000        0.0000000   2.6625776   0.0000000
   0.0000000   0.0000000   4.6790230        0.0000000   0.0000000   1.3428413

                       Lattice parameters(A)       Cell Angles
                    a =    3.307285          alpha =   90.000000
                    b =    2.860912          beta  =   90.000000
                    c =    4.679023          gamma =   55.572927

                       Current cell volume =   36.517782       A**3
                                   density =    2.049646   AMU/A**3
                                           =    3.403518     g/cm^3

                           -------------------------------
                                     Cell Contents
                           -------------------------------
                         Total number of ions in cell =    2
                      Total number of species in cell =    2
                        Max number of any one species =    1

            xxxxxxxxxxxxxxxxxxxxxxxxxxxxxxxxxxxxxxxxxxxxxxxxxxxxxxxxxxxx
            x  Element    Atom        Fractional coordinates of atoms  x
            x            Number           u          v          w      x
            x----------------------------------------------------------x
            x  Al           1         0.489053   0.000000   0.488863   x 
            x  Ti           1         0.003444   0.015343   0.011137   x 
            xxxxxxxxxxxxxxxxxxxxxxxxxxxxxxxxxxxxxxxxxxxxxxxxxxxxxxxxxxxx


                         No user defined ionic velocities

                           -------------------------------
                                   Details of Species
                           -------------------------------

                               Mass of species in AMU
                                    Al   26.9815400
                                    Ti   47.8670000

                          Electric Quadrupole Moment (Barn)
                                    Al    0.1466000 Isotope 27
                                    Ti    0.3020000 Isotope 47

                          Files used for pseudopotentials:
                                    Al 3|2.2|2.2|1.4|4|5|5|30:31:32U2U2
                                    Ti 3|1.8|9|10|11|30U:40:31:32(qc=5.5)

                           -------------------------------
                              k-Points For BZ Sampling
                           -------------------------------
                       MP grid size for SCF calculation is 10 11  6
                            with an offset of   0.000  0.000  0.000
                       Number of kpoints used =           330

                           -------------------------------
                               Symmetry and Constraints
                           -------------------------------

                      Maximum deviation from symmetry =  0.00000         ANG

                      Number of symmetry operations   =           1
                      Number of ionic constraints     =           3
                      Point group of crystal =     1: C1, 1, 1
                      Space group of crystal =     1: P1, P 1

             Set iprint > 1 for details on symmetry rotations/translations

                         Centre of mass is constrained
             Set iprint > 1 for details of linear ionic constraints

                         Number of cell constraints= 0
                         Cell constraints are:  1 2 3 4 5 6

                         External pressure/stress (GPa)
                          0.00000   0.00000   0.00000
                                    0.00000   0.00000
                                              0.00000
  
+---------------- MEMORY AND SCRATCH DISK ESTIMATES PER PROCESS --------------+
|                                                     Memory          Disk    |
| Baseline code, static data and system overhead      172.0 MB         0.0 MB |
| BLAS internal memory storage                          0.0 MB         0.0 MB |
| Model and support data                               82.7 MB         0.0 MB |
| Electronic energy minimisation requirements           9.8 MB         0.0 MB |
| Force calculation requirements                        3.2 MB         0.0 MB |
| Stress calculation requirements                       3.2 MB         0.0 MB |
|                                               ----------------------------- |
| Approx. total storage required per process          264.5 MB         0.0 MB |
|                                                                             |
| Requirements will fluctuate during execution and may exceed these estimates |
+-----------------------------------------------------------------------------+
Calculating finite basis set correction with  3 cut-off energies.
Calculating total energy with cut-off of  490.000 eV.
------------------------------------------------------------------------ <-- SCF
SCF loop      Energy           Fermi           Energy gain       Timer   <-- SCF
                               energy          per atom          (sec)   <-- SCF
------------------------------------------------------------------------ <-- SCF
Initial  -1.41010882E+003  0.00000000E+000                        16.88  <-- SCF
      1  -1.66972094E+003  8.09801514E+000   1.29806060E+002      17.43  <-- SCF
      2  -1.70297272E+003  5.97938449E+000   1.66258914E+001      17.88  <-- SCF
      3  -1.70376793E+003  6.05591971E+000   3.97604990E-001      18.32  <-- SCF
      4  -1.70357705E+003  5.95226873E+000  -9.54435774E-002      18.90  <-- SCF
      5  -1.70358280E+003  6.04992560E+000   2.87646816E-003      19.48  <-- SCF
      6  -1.70358264E+003  5.95917347E+000  -7.73566616E-005      20.05  <-- SCF
      7  -1.70358191E+003  5.98899915E+000  -3.67865156E-004      20.63  <-- SCF
      8  -1.70358199E+003  5.98207560E+000   4.23001412E-005      21.17  <-- SCF
      9  -1.70358200E+003  5.98133172E+000   4.19815196E-006      21.54  <-- SCF
     10  -1.70361652E+003  5.92881551E+000   1.72593718E-002      21.92  <-- SCF
     11  -1.70364348E+003  5.86770838E+000   1.34782213E-002      22.50  <-- SCF
     12  -1.70365545E+003  5.91140769E+000   5.98807521E-003      23.07  <-- SCF
     13  -1.70366011E+003  5.86258729E+000   2.33069787E-003      23.63  <-- SCF
     14  -1.70366282E+003  5.87104942E+000   1.35111200E-003      24.20  <-- SCF
     15  -1.70366339E+003  5.86903219E+000   2.86446558E-004      24.78  <-- SCF
     16  -1.70366342E+003  5.87018052E+000   1.53223173E-005      25.16  <-- SCF
     17  -1.70366342E+003  5.87043190E+000   1.35685891E-006      25.53  <-- SCF
     18  -1.70366342E+003  5.87033501E+000   2.39602417E-007      25.90  <-- SCF
------------------------------------------------------------------------ <-- SCF
 
Integrated Spin Density     =    0.100310E-03 hbar/2                        
Integrated |Spin Density|   =    0.260110E-03 hbar/2                        
 
Final energy, E             =  -1703.653105183     eV
Final free energy (E-TS)    =  -1703.663423003     eV
(energies not corrected for finite basis set)
 
NB est. 0K energy (E-0.5TS)      =  -1703.658264093     eV
 
Calculating total energy with cut-off of  495.000 eV.
------------------------------------------------------------------------ <-- SCF
SCF loop      Energy           Fermi           Energy gain       Timer   <-- SCF
                               energy          per atom          (sec)   <-- SCF
------------------------------------------------------------------------ <-- SCF
Initial  -1.70365311E+003  0.00000000E+000                        26.21  <-- SCF
      1  -1.70366345E+003  5.87013239E+000   5.17333408E-003      26.60  <-- SCF
      2  -1.70366345E+003  5.87013239E+000   1.27073481E-008      26.98  <-- SCF
      3  -1.70366345E+003  5.87051323E+000   2.04419656E-008      27.37  <-- SCF
      4  -1.70366345E+003  5.87026681E+000  -2.48505052E-008      27.74  <-- SCF
------------------------------------------------------------------------ <-- SCF
 
Integrated Spin Density     =    0.797740E-04 hbar/2                        
Integrated |Spin Density|   =    0.134341E-03 hbar/2                        
 
Final energy, E             =  -1703.653133734     eV
Final free energy (E-TS)    =  -1703.663451879     eV
(energies not corrected for finite basis set)
 
NB est. 0K energy (E-0.5TS)      =  -1703.658292807     eV
 
Calculating total energy with cut-off of  500.000 eV.
------------------------------------------------------------------------ <-- SCF
SCF loop      Energy           Fermi           Energy gain       Timer   <-- SCF
                               energy          per atom          (sec)   <-- SCF
------------------------------------------------------------------------ <-- SCF
Initial  -1.70365313E+003  0.00000000E+000                        28.06  <-- SCF
      1  -1.70366349E+003  5.87022690E+000   5.17580432E-003      28.46  <-- SCF
      2  -1.70366349E+003  5.87022690E+000   1.93783554E-009      28.83  <-- SCF
      3  -1.70366349E+003  5.87031606E+000   1.98559263E-009      29.20  <-- SCF
      4  -1.70366349E+003  5.87025029E+000  -9.01680824E-010      29.58  <-- SCF
------------------------------------------------------------------------ <-- SCF
 
Integrated Spin Density     =    0.289281E-04 hbar/2                        
Integrated |Spin Density|   =    0.463132E-04 hbar/2                        
 
Final energy, E             =  -1703.653167149     eV
Final free energy (E-TS)    =  -1703.663485350     eV
(energies not corrected for finite basis set)
 
NB est. 0K energy (E-0.5TS)      =  -1703.658326250     eV
 
 For future reference: finite basis dEtot/dlog(Ecut) =      -0.003094eV
 Total energy corrected for finite basis set =   -1703.663486 eV

 ******************* Unconstrained Forces *******************
 *                                                          *
 *               Cartesian components (eV/A)                *
 * -------------------------------------------------------- *
 *                         x            y            z      *
 *                                                          *
 * Al              1      0.23818     -0.00454      0.45704 *
 * Ti              1     -0.23818      0.00454     -0.45704 *
 *                                                          *
 ************************************************************

 ******************** Constrained Forces ********************
 *                                                          *
 *               Cartesian components (eV/A)                *
 * -------------------------------------------------------- *
 *                         x            y            z      *
 *                                                          *
 * Al              1      0.23818     -0.00454      0.45704 *
 * Ti              1     -0.23818      0.00454     -0.45704 *
 *                                                          *
 ************************************************************

 ***************** Stress Tensor *****************
 *                                               *
 *          Cartesian components (GPa)           *
 * --------------------------------------------- *
 *             x             y             z     *
 *                                               *
 *  x     12.116202     -0.949972     -0.489208  *
 *  y     -0.949972     15.933704      0.018285  *
 *  z     -0.489208      0.018285     13.525001  *
 *                                               *
 *  Pressure:  -13.8583                          *
 *                                               *
 *************************************************

 Pseudo atomic calculation performed for Al 3s2 3p1

 Converged in 15 iterations to a total energy of -105.5951 eV


 Pseudo atomic calculation performed for Ti 3s2 3p6 3d2 4s2

 Converged in 31 iterations to a total energy of -1585.9719 eV

Charge spilling parameter for spin component 1 = 0.26%
Charge spilling parameter for spin component 2 = 0.26%

     Atomic Populations (Mulliken)
     -----------------------------
Species          Ion     s      p      d      f     Total  Charge (e)  Spin (hbar/2)
==================================================================================
  Al              1     1.08   1.98   0.00   0.00   3.05    -0.05        0.00
  Ti              1     2.36   6.82   2.77   0.00  11.95     0.05        0.00
==================================================================================

                 Bond                   Population        Spin       Length (A)
================================================================================
================================================================================

 
 A BibTeX formatted list of references used in this run has been written to 
 castep.bib
 
Initialisation time =     12.72 s
Calculation time    =     18.87 s
Finalisation time   =      0.19 s
Total time          =     31.79 s
Peak Memory Use     = 648888 kB
  
Overall parallel efficiency rating: Mediocre (57%)                              
  
Data was distributed by:-
k-point (48-way); efficiency rating: Mediocre (57%)                             
  
Parallel notes:
1) Calculation only took 31.6 s, so efficiency estimates may be inaccurate.     
 +-------------------------------------------------+
 |                                                 |
 |      CCC   AA    SSS  TTTTT  EEEEE  PPPP        |
 |     C     A  A  S       T    E      P   P       |
 |     C     AAAA   SS     T    EEE    PPPP        |
 |     C     A  A     S    T    E      P           |
 |      CCC  A  A  SSS     T    EEEEE  P           |
 |                                                 |
 +-------------------------------------------------+
 |                                                 |
 | Welcome to Academic Release CASTEP version 17.21|          
 | Ab Initio Total Energy Program                  |
 |                                                 |
 | Authors:                                        |
 | M. Segall, M. Probert, C. Pickard, P. Hasnip,   |
 | S. Clark, K. Refson, J. R. Yates, M. Payne      |
 |                                                 |
 | Contributors:                                   |
 | P. Lindan, P. Haynes, J. White, V. Milman,      |
 | N. Govind, M. Gibson, P. Tulip, V. Cocula,      |
 | B. Montanari, D. Quigley, M. Glover,            |
 | L. Bernasconi, A. Perlov, M. Plummer,           |
 | E. McNellis, J. Meyer, J. Gale, D. Jochym       |
 | J. Aarons, B. Walker, R. Gillen, D. Jones       |
 | T. Green, I. J. Bush, C. J. Armstrong,          |
 | E. J. Higgins, E. L. Brown, M. S. McFly,        |
 | J. Wilkins, B-C. Shih, P. J. P. Byrne           |
 |                                                 |
 | Copyright (c) 2000 - 2017                       |
 |                                                 |
 |     Distributed under the terms of an           |
 |     Agreement between the United Kingdom        |
 |     Car-Parrinello (UKCP) Consortium,           |
 |     Daresbury Laboratory and Accelrys, Inc.     |
 |                                                 |
 | Please cite                                     |
 |                                                 |
 |     "First principles methods using CASTEP"     |
 |                                                 |
 |         Zeitschrift fuer Kristallographie       |
 |           220(5-6) pp. 567-570 (2005)           |
 |                                                 |
 | S. J. Clark, M. D. Segall, C. J. Pickard,       |
 | P. J. Hasnip, M. J. Probert, K. Refson,         |
 | M. C. Payne                                     |
 |                                                 |
 |       in all publications arising from          |
 |              your use of CASTEP                 |
 |                                                 |
 +-------------------------------------------------+


 Compiled for linux_x86_64_gfortran6.0-XT on Fri, 21 Jul 2017 10:20:05 +0100
 from code version 056e886bd5a1+ Castep172_branch Mon, 15 May 2017 14:45:35 +0100
 Compiler: GNU Fortran 6.3.0; Optimisation: fast
 MATHLIBS: Intel MKL(2017.0.0) (LAPACK version 3.6.0)
 FFT Lib : fftw3 version commercial-fftw-3.3.4-sse2-avx
 Fundamental constants values: CODATA 2010

 Run started: Wed, 04 Dec 2019 16:06:51 +0000

 Atomic calculation performed for Al: 1s2 2s2 2p6 3s2 3p1

 Converged in 55 iterations to an ae energy of -6578.725 eV

   ============================================================                
   | Pseudopotential Report - Date of generation  4-12-2019   |                
   ------------------------------------------------------------                
   | Element: Al Ionic charge:  3.00 Level of theory: LDA     |                
   | Atomic Solver: Koelling-Harmon                           |                
   |                                                          |                
   |               Reference Electronic Structure             |                
   |         Orbital         Occupation         Energy        |                
   |            3s              2.000           -0.288        |                
   |            3p              1.000           -0.102        |                
   |                                                          |                
   |                 Pseudopotential Definition               |                
   |        Beta     l      e      Rc     scheme   norm       |                
   |          1      0   -0.288   2.192     qc      0         |                
   |          2      0    0.250   2.192     qc      0         |                
   |          3      1   -0.102   2.192     qc      0         |                
   |          4      1    0.250   2.192     qc      0         |                
   |          5      2    0.000   2.000     qc      0         |                
   |          6      2    0.250   2.000     qc      0         |                
   |         loc     3    0.000   2.192     pn      0         |                
   |                                                          |                
   | Augmentation charge Rinner = 1.398                       |                
   | Partial core correction Rc = 1.398                       |                
   ------------------------------------------------------------                
   | "3|2.2|2.2|1.4|4|5|5|30:31:32U2U2"                       |                
   ------------------------------------------------------------                
   |      Author: Chris J. Pickard, Cambridge University      |                
   ============================================================                

 Atomic calculation performed for Ti: 1s2 2s2 2p6 3s2 3p6 3d2 4s2

 Converged in 78 iterations to an ae energy of -23176.516 eV

   ============================================================                
   | Pseudopotential Report - Date of generation  4-12-2019   |                
   ------------------------------------------------------------                
   | Element: Ti Ionic charge: 12.00 Level of theory: LDA     |                
   | Atomic Solver: Koelling-Harmon                           |                
   |                                                          |                
   |               Reference Electronic Structure             |                
   |         Orbital         Occupation         Energy        |                
   |            3s              2.000           -2.288        |                
   |            3p              6.000           -1.425        |                
   |            4s              2.000           -0.169        |                
   |            3d              2.000           -0.164        |                
   |                                                          |                
   |                 Pseudopotential Definition               |                
   |        Beta     l      e      Rc     scheme   norm       |                
   |          1      0   -2.288   1.793     qc      0         |                
   |          2      0   -0.169   1.793     qc      0         |                
   |          3      0    0.250   1.793     qc      0         |                
   |          4      1   -1.425   1.793     qc      0         |                
   |          5      1    0.250   1.793     qc      0         |                
   |          6      2   -0.164   1.793     qc      0         |                
   |          7      2    0.250   1.793     qc      0         |                
   |         loc     3    0.000   1.793     pn      0         |                
   |                                                          |                
   | Augmentation charge Rinner = 1.263                       |                
   | Partial core correction Rc = 1.263                       |                
   ------------------------------------------------------------                
   | "3|1.8|9|10|11|30U:40:31:32(qc=5.5)"                     |                
   ------------------------------------------------------------                
   |      Author: Chris J. Pickard, Cambridge University      |                
   ============================================================                

 Pseudo atomic calculation performed for Al 3s2 3p1

 Converged in 15 iterations to a total energy of -105.5951 eV


 Pseudo atomic calculation performed for Ti 3s2 3p6 3d2 4s2

 Converged in 31 iterations to a total energy of -1585.9719 eV

 Calculation parallelised over 48 processes.
 Data is distributed by k-point(48-way)

 ************************************ Title ************************************
 

 ***************************** General Parameters ******************************
  
 output verbosity                               : normal  (1)
 write checkpoint data to                       : castep.check
 type of calculation                            : single point energy
 stress calculation                             : on
 density difference calculation                 : off
 electron localisation func (ELF) calculation   : off
 Hirshfeld analysis                             : off
 unlimited duration calculation
 timing information                             : on
 memory usage estimate                          : on
 write final potential to formatted file        : off
 write final density to formatted file          : off
 write BibTeX reference list                    : on
 write OTFG pseudopotential files               : on
 write electrostatic potential file             : on
 write bands file                               : on
 checkpoint writing                             : off
  
 output         length unit                     : A
 output           mass unit                     : amu
 output           time unit                     : ps
 output         charge unit                     : e
 output           spin unit                     : hbar/2
 output         energy unit                     : eV
 output          force unit                     : eV/A
 output       velocity unit                     : A/ps
 output       pressure unit                     : GPa
 output     inv_length unit                     : 1/A
 output      frequency unit                     : cm-1
 output force constant unit                     : eV/A**2
 output         volume unit                     : A**3
 output   IR intensity unit                     : (D/A)**2/amu
 output         dipole unit                     : D
 output         efield unit                     : eV/A/e
 output        entropy unit                     : J/mol/K
  
 wavefunctions paging                           : none
 random number generator seed                   : randomised (160651721)
 data distribution                              : optimal for this architecture
 optimization strategy                          : maximize speed(+++)

 *********************** Exchange-Correlation Parameters ***********************
  
 using functional                               : Local Density Approximation
 relativistic treatment                         : Koelling-Harmon
 DFT+D: Semi-empirical dispersion correction    : off

 ************************* Pseudopotential Parameters **************************
  
 pseudopotential representation                 : reciprocal space
 <beta|phi> representation                      : reciprocal space
 spin-orbit coupling                            : off

 **************************** Basis Set Parameters *****************************
  
 plane wave basis set cut-off                   :   500.0000   eV
 size of standard grid                          :     1.7500
 size of   fine   gmax                          :    20.0476   1/A
 finite basis set correction                    : automatic
 number of sample energies                      :          3
           sample  spacing                      :     5.0000   eV

 **************************** Electronic Parameters ****************************
  
 number of  electrons                           :  15.00    
 net charge of system                           :  0.000    
 net spin   of system                           :  1.000    
 number of  up  spins                           :  8.000    
 number of down spins                           :  7.000    
 treating system as spin-polarized
 number of bands                                :         12

 ********************* Electronic Minimization Parameters **********************
  
 Method: Treating system as metallic with density mixing treatment of electrons,
         and number of  SD  steps               :          1
         and number of  CG  steps               :          4
  
 total energy / atom convergence tol.           : 0.1000E-04   eV
 eigen-energy convergence tolerance             : 0.1000E-05   eV
 max force / atom convergence tol.              : ignored
 convergence tolerance window                   :          3   cycles
 max. number of SCF cycles                      :        250
 number of fixed-spin iterations                :         10
 smearing scheme                                : Gaussian
 smearing width                                 : 0.1000       eV
 Fermi energy convergence tolerance             : 0.2721E-13   eV
 periodic dipole correction                     : NONE

 ************************** Density Mixing Parameters **************************
  
 density-mixing scheme                          : Pulay
 max. length of mixing history                  :         20
 charge density mixing amplitude                : 0.8000    
   spin density mixing amplitude                :  2.000    
 cut-off energy for mixing                      :  500.0       eV

 *********************** Population Analysis Parameters ************************
  
 Population analysis with cutoff                :  3.000       A

 *******************************************************************************
  

                           -------------------------------
                                      Unit Cell
                           -------------------------------
        Real Lattice(A)                      Reciprocal Lattice(1/A)
   3.2945690   0.0000000   0.0000000        1.9071342  -1.2662112   0.0000000
   1.5748720   2.3720310   0.0000000        0.0000000   2.6488631   0.0000000
   0.0000000   0.0000000   4.6628570        0.0000000   0.0000000   1.3474969

                       Lattice parameters(A)       Cell Angles
                    a =    3.294569          alpha =   90.000000
                    b =    2.847236          beta  =   90.000000
                    c =    4.662857          gamma =   56.418465

                       Current cell volume =   36.439387       A**3
                                   density =    2.054056   AMU/A**3
                                           =    3.410840     g/cm^3

                           -------------------------------
                                     Cell Contents
                           -------------------------------
                         Total number of ions in cell =    2
                      Total number of species in cell =    2
                        Max number of any one species =    1

            xxxxxxxxxxxxxxxxxxxxxxxxxxxxxxxxxxxxxxxxxxxxxxxxxxxxxxxxxxxx
            x  Element    Atom        Fractional coordinates of atoms  x
            x            Number           u          v          w      x
            x----------------------------------------------------------x
            x  Al           1         0.478021   0.000000   0.477648   x 
            x  Ti           1         0.007387   0.030528   0.022352   x 
            xxxxxxxxxxxxxxxxxxxxxxxxxxxxxxxxxxxxxxxxxxxxxxxxxxxxxxxxxxxx


                         No user defined ionic velocities

                           -------------------------------
                                   Details of Species
                           -------------------------------

                               Mass of species in AMU
                                    Al   26.9815400
                                    Ti   47.8670000

                          Electric Quadrupole Moment (Barn)
                                    Al    0.1466000 Isotope 27
                                    Ti    0.3020000 Isotope 47

                          Files used for pseudopotentials:
                                    Al 3|2.2|2.2|1.4|4|5|5|30:31:32U2U2
                                    Ti 3|1.8|9|10|11|30U:40:31:32(qc=5.5)

                           -------------------------------
                              k-Points For BZ Sampling
                           -------------------------------
                       MP grid size for SCF calculation is 10 11  6
                            with an offset of   0.000  0.000  0.000
                       Number of kpoints used =           330

                           -------------------------------
                               Symmetry and Constraints
                           -------------------------------

                      Maximum deviation from symmetry =  0.00000         ANG

                      Number of symmetry operations   =           1
                      Number of ionic constraints     =           3
                      Point group of crystal =     1: C1, 1, 1
                      Space group of crystal =     1: P1, P 1

             Set iprint > 1 for details on symmetry rotations/translations

                         Centre of mass is constrained
             Set iprint > 1 for details of linear ionic constraints

                         Number of cell constraints= 0
                         Cell constraints are:  1 2 3 4 5 6

                         External pressure/stress (GPa)
                          0.00000   0.00000   0.00000
                                    0.00000   0.00000
                                              0.00000
  
+---------------- MEMORY AND SCRATCH DISK ESTIMATES PER PROCESS --------------+
|                                                     Memory          Disk    |
| Baseline code, static data and system overhead      172.0 MB         0.0 MB |
| BLAS internal memory storage                          0.0 MB         0.0 MB |
| Model and support data                               82.7 MB         0.0 MB |
| Electronic energy minimisation requirements           9.8 MB         0.0 MB |
| Force calculation requirements                        3.2 MB         0.0 MB |
| Stress calculation requirements                       3.2 MB         0.0 MB |
|                                               ----------------------------- |
| Approx. total storage required per process          264.5 MB         0.0 MB |
|                                                                             |
| Requirements will fluctuate during execution and may exceed these estimates |
+-----------------------------------------------------------------------------+
Calculating finite basis set correction with  3 cut-off energies.
Calculating total energy with cut-off of  490.000 eV.
------------------------------------------------------------------------ <-- SCF
SCF loop      Energy           Fermi           Energy gain       Timer   <-- SCF
                               energy          per atom          (sec)   <-- SCF
------------------------------------------------------------------------ <-- SCF
Initial  -1.41144689E+003  0.00000000E+000                        16.56  <-- SCF
      1  -1.66919152E+003  8.02837768E+000   1.28872314E+002      17.16  <-- SCF
      2  -1.70288948E+003  5.92586158E+000   1.68489797E+001      17.64  <-- SCF
      3  -1.70370326E+003  6.01235744E+000   4.06888851E-001      18.10  <-- SCF
      4  -1.70346627E+003  5.96340241E+000  -1.18494157E-001      18.71  <-- SCF
      5  -1.70347096E+003  6.02108530E+000   2.34444454E-003      19.33  <-- SCF
      6  -1.70347385E+003  5.95392804E+000   1.44580247E-003      19.94  <-- SCF
      7  -1.70347320E+003  5.98458506E+000  -3.25833785E-004      20.55  <-- SCF
      8  -1.70347322E+003  5.97573355E+000   1.10540011E-005      21.13  <-- SCF
      9  -1.70347323E+003  5.97528578E+000   5.14923236E-006      21.53  <-- SCF
     10  -1.70350820E+003  5.92544707E+000   1.74851480E-002      21.93  <-- SCF
     11  -1.70353521E+003  5.85864660E+000   1.35062289E-002      22.54  <-- SCF
     12  -1.70354749E+003  5.89689075E+000   6.13670846E-003      23.14  <-- SCF
     13  -1.70355242E+003  5.84879135E+000   2.46580621E-003      23.73  <-- SCF
     14  -1.70355435E+003  5.86228688E+000   9.66620037E-004      24.33  <-- SCF
     15  -1.70355484E+003  5.86121583E+000   2.46501705E-004      24.93  <-- SCF
     16  -1.70355487E+003  5.86252284E+000   1.41011912E-005      25.36  <-- SCF
     17  -1.70355488E+003  5.86280089E+000   1.48722164E-006      25.75  <-- SCF
     18  -1.70355488E+003  5.86270683E+000   2.30974142E-007      26.15  <-- SCF
------------------------------------------------------------------------ <-- SCF
 
Integrated Spin Density     =    0.150333E-03 hbar/2                        
Integrated |Spin Density|   =    0.286939E-03 hbar/2                        
 
Final energy, E             =  -1703.543535462     eV
Final free energy (E-TS)    =  -1703.554876075     eV
(energies not corrected for finite basis set)
 
NB est. 0K energy (E-0.5TS)      =  -1703.549205768     eV
 
Calculating total energy with cut-off of  495.000 eV.
------------------------------------------------------------------------ <-- SCF
SCF loop      Energy           Fermi           Energy gain       Timer   <-- SCF
                               energy          per atom          (sec)   <-- SCF
------------------------------------------------------------------------ <-- SCF
Initial  -1.70354354E+003  0.00000000E+000                        26.47  <-- SCF
      1  -1.70355491E+003  5.86257012E+000   5.68514354E-003      26.86  <-- SCF
      2  -1.70355491E+003  5.86257012E+000   1.22087023E-008      27.24  <-- SCF
      3  -1.70355491E+003  5.86279833E+000   1.12214647E-008      27.63  <-- SCF
      4  -1.70355491E+003  5.86264773E+000  -8.19681716E-009      28.00  <-- SCF
------------------------------------------------------------------------ <-- SCF
 
Integrated Spin Density     =    0.913542E-04 hbar/2                        
Integrated |Spin Density|   =    0.144643E-03 hbar/2                        
 
Final energy, E             =  -1703.543564997     eV
Final free energy (E-TS)    =  -1703.554905794     eV
(energies not corrected for finite basis set)
 
NB est. 0K energy (E-0.5TS)      =  -1703.549235395     eV
 
Calculating total energy with cut-off of  500.000 eV.
------------------------------------------------------------------------ <-- SCF
SCF loop      Energy           Fermi           Energy gain       Timer   <-- SCF
                               energy          per atom          (sec)   <-- SCF
------------------------------------------------------------------------ <-- SCF
Initial  -1.70354356E+003  0.00000000E+000                        28.32  <-- SCF
      1  -1.70355494E+003  5.86265171E+000   5.68718129E-003      28.72  <-- SCF
      2  -1.70355494E+003  5.86265171E+000   1.83864775E-009      29.10  <-- SCF
      3  -1.70355494E+003  5.86263150E+000   1.75028748E-009      29.48  <-- SCF
      4  -1.70355494E+003  5.86267028E+000   2.80065331E-010      29.86  <-- SCF
------------------------------------------------------------------------ <-- SCF
 
Integrated Spin Density     =    0.357421E-04 hbar/2                        
Integrated |Spin Density|   =    0.538354E-04 hbar/2                        
 
Final energy, E             =  -1703.543598721     eV
Final free energy (E-TS)    =  -1703.554939368     eV
(energies not corrected for finite basis set)
 
NB est. 0K energy (E-0.5TS)      =  -1703.549269044     eV
 
 For future reference: finite basis dEtot/dlog(Ecut) =      -0.003136eV
 Total energy corrected for finite basis set =   -1703.554940 eV

 ******************* Unconstrained Forces *******************
 *                                                          *
 *               Cartesian components (eV/A)                *
 * -------------------------------------------------------- *
 *                         x            y            z      *
 *                                                          *
 * Al              1      0.54383     -0.01478      1.02689 *
 * Ti              1     -0.54383      0.01478     -1.02689 *
 *                                                          *
 ************************************************************

 ******************** Constrained Forces ********************
 *                                                          *
 *               Cartesian components (eV/A)                *
 * -------------------------------------------------------- *
 *                         x            y            z      *
 *                                                          *
 * Al              1      0.54383     -0.01478      1.02689 *
 * Ti              1     -0.54383      0.01478     -1.02689 *
 *                                                          *
 ************************************************************

 ***************** Stress Tensor *****************
 *                                               *
 *          Cartesian components (GPa)           *
[...]
   |                                                          |                
   | Augmentation charge Rinner = 1.263                       |                
   | Partial core correction Rc = 1.263                       |                
   ------------------------------------------------------------                
   | "3|1.8|9|10|11|30U:40:31:32(qc=5.5)"                     |                
   ------------------------------------------------------------                
   |      Author: Chris J. Pickard, Cambridge University      |                
   ============================================================                

 Pseudo atomic calculation performed for Al 3s2 3p1

 Converged in 15 iterations to a total energy of -105.5951 eV


 Pseudo atomic calculation performed for Ti 3s2 3p6 3d2 4s2

 Converged in 31 iterations to a total energy of -1585.9719 eV

 Calculation parallelised over 48 processes.
 Data is distributed by k-point(48-way)

 ************************************ Title ************************************
 

 ***************************** General Parameters ******************************
  
 output verbosity                               : normal  (1)
 write checkpoint data to                       : castep.check
 type of calculation                            : single point energy
 stress calculation                             : on
 density difference calculation                 : off
 electron localisation func (ELF) calculation   : off
 Hirshfeld analysis                             : off
 unlimited duration calculation
 timing information                             : on
 memory usage estimate                          : on
 write final potential to formatted file        : off
 write final density to formatted file          : off
 write BibTeX reference list                    : on
 write OTFG pseudopotential files               : on
 write electrostatic potential file             : on
 write bands file                               : on
 checkpoint writing                             : off
  
 output         length unit                     : A
 output           mass unit                     : amu
 output           time unit                     : ps
 output         charge unit                     : e
 output           spin unit                     : hbar/2
 output         energy unit                     : eV
 output          force unit                     : eV/A
 output       velocity unit                     : A/ps
 output       pressure unit                     : GPa
 output     inv_length unit                     : 1/A
 output      frequency unit                     : cm-1
 output force constant unit                     : eV/A**2
 output         volume unit                     : A**3
 output   IR intensity unit                     : (D/A)**2/amu
 output         dipole unit                     : D
 output         efield unit                     : eV/A/e
 output        entropy unit                     : J/mol/K
  
 wavefunctions paging                           : none
 random number generator seed                   : randomised (162901797)
 data distribution                              : optimal for this architecture
 optimization strategy                          : maximize speed(+++)

 *********************** Exchange-Correlation Parameters ***********************
  
 using functional                               : Local Density Approximation
 relativistic treatment                         : Koelling-Harmon
 DFT+D: Semi-empirical dispersion correction    : off

 ************************* Pseudopotential Parameters **************************
  
 pseudopotential representation                 : reciprocal space
 <beta|phi> representation                      : reciprocal space
 spin-orbit coupling                            : off

 **************************** Basis Set Parameters *****************************
  
 plane wave basis set cut-off                   :   500.0000   eV
 size of standard grid                          :     1.7500
 size of   fine   gmax                          :    20.0476   1/A
 finite basis set correction                    : automatic
 number of sample energies                      :          3
           sample  spacing                      :     5.0000   eV

 **************************** Electronic Parameters ****************************
  
 number of  electrons                           :  15.00    
 net charge of system                           :  0.000    
 net spin   of system                           :  1.000    
 number of  up  spins                           :  8.000    
 number of down spins                           :  7.000    
 treating system as spin-polarized
 number of bands                                :         12

 ********************* Electronic Minimization Parameters **********************
  
 Method: Treating system as metallic with density mixing treatment of electrons,
         and number of  SD  steps               :          1
         and number of  CG  steps               :          4
  
 total energy / atom convergence tol.           : 0.1000E-04   eV
 eigen-energy convergence tolerance             : 0.1000E-05   eV
 max force / atom convergence tol.              : ignored
 convergence tolerance window                   :          3   cycles
 max. number of SCF cycles                      :        250
 number of fixed-spin iterations                :         10
 smearing scheme                                : Gaussian
 smearing width                                 : 0.1000       eV
 Fermi energy convergence tolerance             : 0.2721E-13   eV
 periodic dipole correction                     : NONE

 ************************** Density Mixing Parameters **************************
  
 density-mixing scheme                          : Pulay
 max. length of mixing history                  :         20
 charge density mixing amplitude                : 0.8000    
   spin density mixing amplitude                :  2.000    
 cut-off energy for mixing                      :  500.0       eV

 *********************** Population Analysis Parameters ************************
  
 Population analysis with cutoff                :  3.000       A

 *******************************************************************************
  

                           -------------------------------
                                      Unit Cell
                           -------------------------------
        Real Lattice(A)                      Reciprocal Lattice(1/A)
   2.8241050   0.0000000   0.0000000        2.2248413   0.0000000   0.0000000
   0.0000000   2.8241050   0.0000000        0.0000000   2.2248413   0.0000000
   0.0000000   0.0000000   4.0647120        0.0000000   0.0000000   1.5457886

                       Lattice parameters(A)       Cell Angles
                    a =    2.824105          alpha =   90.000000
                    b =    2.824105          beta  =   90.000000
                    c =    4.064712          gamma =   90.000000

                       Current cell volume =   32.418391       A**3
                                   density =    2.308830   AMU/A**3
                                           =    3.833901     g/cm^3

                           -------------------------------
                                     Cell Contents
                           -------------------------------
                         Total number of ions in cell =    2
                      Total number of species in cell =    2
                        Max number of any one species =    1

            xxxxxxxxxxxxxxxxxxxxxxxxxxxxxxxxxxxxxxxxxxxxxxxxxxxxxxxxxxxx
            x  Element    Atom        Fractional coordinates of atoms  x
            x            Number           u          v          w      x
            x----------------------------------------------------------x
            x  Al           1         0.000000   0.000000   0.000000   x 
            x  Ti           1         0.500000   0.500000   0.500000   x 
            xxxxxxxxxxxxxxxxxxxxxxxxxxxxxxxxxxxxxxxxxxxxxxxxxxxxxxxxxxxx


                         No user defined ionic velocities

                           -------------------------------
                                   Details of Species
                           -------------------------------

                               Mass of species in AMU
                                    Al   26.9815400
                                    Ti   47.8670000

                          Electric Quadrupole Moment (Barn)
                                    Al    0.1466000 Isotope 27
                                    Ti    0.3020000 Isotope 47

                          Files used for pseudopotentials:
                                    Al 3|2.2|2.2|1.4|4|5|5|30:31:32U2U2
                                    Ti 3|1.8|9|10|11|30U:40:31:32(qc=5.5)

                           -------------------------------
                              k-Points For BZ Sampling
                           -------------------------------
                       MP grid size for SCF calculation is  9  9  7
                            with an offset of   0.000  0.000  0.000
                       Number of kpoints used =           284

                           -------------------------------
                               Symmetry and Constraints
                           -------------------------------

                      Maximum deviation from symmetry =  0.00000         ANG

                      Number of symmetry operations   =           1
                      Number of ionic constraints     =           3
                      Point group of crystal =     1: C1, 1, 1
                      Space group of crystal =   123: P4/mmm, -P 4 2

             Set iprint > 1 for details on symmetry rotations/translations

                         Centre of mass is constrained
             Set iprint > 1 for details of linear ionic constraints

                         Number of cell constraints= 0
                         Cell constraints are:  1 2 3 4 5 6

                         External pressure/stress (GPa)
                          0.00000   0.00000   0.00000
                                    0.00000   0.00000
                                              0.00000
  
+---------------- MEMORY AND SCRATCH DISK ESTIMATES PER PROCESS --------------+
|                                                     Memory          Disk    |
| Baseline code, static data and system overhead      172.0 MB         0.0 MB |
| BLAS internal memory storage                          0.0 MB         0.0 MB |
| Model and support data                               70.2 MB         0.0 MB |
| Electronic energy minimisation requirements           8.0 MB         0.0 MB |
| Force calculation requirements                        2.4 MB         0.0 MB |
| Stress calculation requirements                       2.4 MB         0.0 MB |
|                                               ----------------------------- |
| Approx. total storage required per process          250.2 MB         0.0 MB |
|                                                                             |
| Requirements will fluctuate during execution and may exceed these estimates |
+-----------------------------------------------------------------------------+
Calculating finite basis set correction with  3 cut-off energies.
Calculating total energy with cut-off of  490.000 eV.
------------------------------------------------------------------------ <-- SCF
SCF loop      Energy           Fermi           Energy gain       Timer   <-- SCF
                               energy          per atom          (sec)   <-- SCF
------------------------------------------------------------------------ <-- SCF
Initial  -1.41413908E+003  0.00000000E+000                        15.30  <-- SCF
      1  -1.66993783E+003  8.99161843E+000   1.27899371E+002      15.72  <-- SCF
      2  -1.70354509E+003  7.24831353E+000   1.68036336E+001      16.07  <-- SCF
      3  -1.70422305E+003  7.31371480E+000   3.38979662E-001      16.40  <-- SCF
      4  -1.70413530E+003  7.01033327E+000  -4.38773088E-002      16.84  <-- SCF
      5  -1.70412985E+003  7.30190015E+000  -2.72229183E-003      17.27  <-- SCF
      6  -1.70411616E+003  7.16412943E+000  -6.84594301E-003      17.69  <-- SCF
      7  -1.70411650E+003  7.17451758E+000   1.68702206E-004      18.09  <-- SCF
      8  -1.70411661E+003  7.17136659E+000   5.52120838E-005      18.42  <-- SCF
      9  -1.70411662E+003  7.17058187E+000   4.23890354E-006      18.70  <-- SCF
     10  -1.70418548E+003  7.08487805E+000   3.44325411E-002      18.98  <-- SCF
     11  -1.70423804E+003  6.96501138E+000   2.62761140E-002      19.39  <-- SCF
     12  -1.70425075E+003  7.03060152E+000   6.35837246E-003      19.80  <-- SCF
     13  -1.70425189E+003  6.98290321E+000   5.70715911E-004      20.21  <-- SCF
     14  -1.70425255E+003  6.99571685E+000   3.27163554E-004      20.63  <-- SCF
     15  -1.70425269E+003  6.99539102E+000   7.09622732E-005      21.00  <-- SCF
     16  -1.70425273E+003  6.99507452E+000   1.90931461E-005      21.27  <-- SCF
     17  -1.70425273E+003  6.99493512E+000   2.24236004E-006      21.55  <-- SCF
     18  -1.70425273E+003  6.99493320E+000   2.79756264E-007      21.82  <-- SCF
------------------------------------------------------------------------ <-- SCF
 
Integrated Spin Density     =    0.194107E-03 hbar/2                        
Integrated |Spin Density|   =    0.327164E-03 hbar/2                        
 
Final energy, E             =  -1704.242168543     eV
Final free energy (E-TS)    =  -1704.252733705     eV
(energies not corrected for finite basis set)
 
NB est. 0K energy (E-0.5TS)      =  -1704.247451124     eV
 
Calculating total energy with cut-off of  495.000 eV.
------------------------------------------------------------------------ <-- SCF
SCF loop      Energy           Fermi           Energy gain       Timer   <-- SCF
                               energy          per atom          (sec)   <-- SCF
------------------------------------------------------------------------ <-- SCF
Initial  -1.70424217E+003  0.00000000E+000                        22.03  <-- SCF
      1  -1.70425276E+003  6.99491015E+000   5.29777165E-003      22.33  <-- SCF
      2  -1.70425276E+003  6.99491015E+000   1.18591282E-008      22.60  <-- SCF
      3  -1.70425276E+003  6.99495733E+000   7.32868231E-009      22.88  <-- SCF
      4  -1.70425276E+003  6.99491021E+000   2.30848466E-009      23.16  <-- SCF
------------------------------------------------------------------------ <-- SCF
 
Integrated Spin Density     =    0.827906E-04 hbar/2                        
Integrated |Spin Density|   =    0.117435E-03 hbar/2                        
 
Final energy, E             =  -1704.242199338     eV
Final free energy (E-TS)    =  -1704.252764161     eV
(energies not corrected for finite basis set)
 
NB est. 0K energy (E-0.5TS)      =  -1704.247481750     eV
 
Calculating total energy with cut-off of  500.000 eV.
------------------------------------------------------------------------ <-- SCF
SCF loop      Energy           Fermi           Energy gain       Timer   <-- SCF
                               energy          per atom          (sec)   <-- SCF
------------------------------------------------------------------------ <-- SCF
Initial  -1.70424220E+003  0.00000000E+000                        23.35  <-- SCF
      1  -1.70425280E+003  6.99500539E+000   5.29979730E-003      23.63  <-- SCF
      2  -1.70425280E+003  6.99500539E+000   1.75057750E-009      23.89  <-- SCF
      3  -1.70425280E+003  6.99480200E+000   4.79620339E-009      24.15  <-- SCF
      4  -1.70425280E+003  6.99492995E+000  -6.08187437E-009      24.41  <-- SCF
------------------------------------------------------------------------ <-- SCF
 
Integrated Spin Density     =    0.225646E-04 hbar/2                        
Integrated |Spin Density|   =    0.307750E-04 hbar/2                        
 
Final energy, E             =  -1704.242234299     eV
Final free energy (E-TS)    =  -1704.252798933     eV
(energies not corrected for finite basis set)
 
NB est. 0K energy (E-0.5TS)      =  -1704.247516616     eV
 
 For future reference: finite basis dEtot/dlog(Ecut) =      -0.003231eV
 Total energy corrected for finite basis set =   -1704.252799 eV

 ******************* Unconstrained Forces *******************
 *                                                          *
 *               Cartesian components (eV/A)                *
 * -------------------------------------------------------- *
 *                         x            y            z      *
 *                                                          *
 * Al              1      0.00000      0.00000     -0.00000 *
 * Ti              1     -0.00000     -0.00000      0.00000 *
 *                                                          *
 ************************************************************

 ******************** Constrained Forces ********************
 *                                                          *
 *               Cartesian components (eV/A)                *
 * -------------------------------------------------------- *
 *                         x            y            z      *
 *                                                          *
 * Al              1      0.00000      0.00000     -0.00000 *
 * Ti              1     -0.00000     -0.00000      0.00000 *
 *                                                          *
 ************************************************************

 ***************** Stress Tensor *****************
 *                                               *
 *          Cartesian components (GPa)           *
 * --------------------------------------------- *
 *             x             y             z     *
 *                                               *
 *  x      6.713103     -0.000000     -0.000000  *
 *  y     -0.000000      6.713103      0.000000  *
 *  z     -0.000000      0.000000      6.162354  *
 *                                               *
 *  Pressure:   -6.5295                          *
 *                                               *
 *************************************************

 Pseudo atomic calculation performed for Al 3s2 3p1

 Converged in 15 iterations to a total energy of -105.5951 eV


 Pseudo atomic calculation performed for Ti 3s2 3p6 3d2 4s2

 Converged in 31 iterations to a total energy of -1585.9719 eV

Charge spilling parameter for spin component 1 = 0.25%
Charge spilling parameter for spin component 2 = 0.25%

     Atomic Populations (Mulliken)
     -----------------------------
Species          Ion     s      p      d      f     Total  Charge (e)  Spin (hbar/2)
==================================================================================
  Al              1     0.99   2.12   0.00   0.00   3.10    -0.10       -0.00
  Ti              1     2.31   6.73   2.85   0.00  11.90     0.10        0.00
==================================================================================

                 Bond                   Population        Spin       Length (A)
================================================================================
================================================================================

 
 A BibTeX formatted list of references used in this run has been written to 
 castep.bib
 
Initialisation time =     12.17 s
Calculation time    =     13.88 s
Finalisation time   =      0.03 s
Total time          =     26.08 s
Peak Memory Use     = 576944 kB
  
Overall parallel efficiency rating: Mediocre (50%)                              
  
Data was distributed by:-
k-point (48-way); efficiency rating: Mediocre (50%)                             
  
Parallel notes:
1) Calculation only took 26.1 s, so efficiency estimates may be inaccurate.     
