2
Lattice="2.93367176 0.0 0.0 -1.4668358799999994 2.5406342705250053 0.0 0.0 0.0 4.65700878" Properties=species:S:1:pos:R:3:tags:I:1 spacegroup="P 1" energy=-3187.17838318 unit_cell=conventional pbc="T T T" n_minim_iter=1
Ti       1.46683735       0.84687724       3.49275658        0 
Ti      -0.00000147       1.69375703       1.16425219        1 
2
Lattice="2.846391976723169 2.0605463355655403e-07 9.042332975904531e-20 -1.4231958099130366 2.4650478642909754 9.140719862512597e-19 1.4354102130522913e-19 1.7583768107258326e-18 4.541944648734484" Properties=species:S:1:pos:R:3:tags:I:1 spacegroup="P 1" stress="0.03526260260735407 -1.5295891788975856e-07 -3.446186999399154e-18 -1.5295891788975856e-07 0.03526242573429951 1.8430361714067007e-21 -3.446186999399154e-18 1.8430361714067007e-21 0.024318847041460197" unit_cell=conventional pbc="T T T" n_minim_iter=2
Ti       1.42319732       0.82168202       3.40645848        0 
Ti      -0.00000116       1.64336605       1.13548616        1 
2
Lattice="2.7781503249134865 4.929940999913798e-07 6.6913573659014e-18 -1.3890747355113282 2.405949004105589 -2.405712733670681e-18 1.0622084729451968e-17 1.7229672643097542e-18 4.466500978637947" Properties=species:S:1:pos:R:3:tags:I:1 spacegroup="P 1" stress="0.0629591722355626 -8.51818403573673e-08 8.386522082763825e-18 -8.51818403573673e-08 0.0629590737360934 1.6881976581590519e-18 8.386522082763825e-18 1.6881976581590519e-18 0.05261107922436298" unit_cell=conventional pbc="T T T" n_minim_iter=3
Ti       1.38907636       0.80198272       3.34987573        0 
Ti      -0.00000077       1.60396678       1.11662524        1 
2
Lattice="2.7781503249134865 4.929940999913798e-07 6.6913573659014e-18 -1.3890747355113282 2.405949004105589 -2.405712733670681e-18 1.0622084729451968e-17 1.7229672643097542e-18 4.466500978637947" Properties=species:S:1:pos:R:3:tags:I:1 spacegroup="P 1" stress="0.0629591722355626 -8.51818403573673e-08 8.386522082763825e-18 -8.51818403573673e-08 0.0629590737360934 1.6881976581590519e-18 8.386522082763825e-18 1.6881976581590519e-18 0.05261107922436298" unit_cell=conventional pbc="T T T" n_minim_iter=4
Ti       1.38907636       0.80198272       3.34987573        0 
Ti      -0.00000077       1.60396678       1.11662524        1 
2
Lattice="2.715286382150181 5.659220232006922e-07 -1.7946047779741895e-18 -1.3576427009722414 2.3515072692582435 3.626183324941645e-19 -2.8488157133352064e-18 -9.800813814493036e-19 4.381886333713298" Properties=species:S:1:pos:R:3:tags:I:1 spacegroup="P 1" stress="0.18993526288624382 -6.937780192896711e-08 -5.192684596566063e-19 -6.937780192896711e-08 0.1899351826616721 2.2475799000062064e-19 -5.192684596566063e-19 2.2475799000062064e-19 0.1724100820816781" unit_cell=conventional pbc="T T T" n_minim_iter=5
Ti       1.35764434       0.78383556       3.28641475        0 
Ti      -0.00000066       1.56767227       1.09547158        1 
2
Lattice="2.715286382150181 5.659220232006922e-07 -1.7946047779741895e-18 -1.3576427009722414 2.3515072692582435 3.626183324941645e-19 -2.8488157133352064e-18 -9.800813814493036e-19 4.381886333713298" Properties=species:S:1:pos:R:3:tags:I:1 spacegroup="P 1" stress="0.18993526288624382 -6.937780192896711e-08 -5.192684596566063e-19 -6.937780192896711e-08 0.1899351826616721 2.2475799000062064e-19 -5.192684596566063e-19 2.2475799000062064e-19 0.1724100820816781" unit_cell=conventional pbc="T T T" n_minim_iter=6
Ti       1.35764434       0.78383556       3.28641475        0 
Ti      -0.00000066       1.56767227       1.09547158        1 
2
Lattice="2.641081708120996 5.771872479655563e-07 -1.5458133679513272e-18 -1.3205403542016778 2.2872441421180665 1.764533157033609e-19 -2.453875898778362e-18 -1.0933051660090751e-18 4.2730468398177" Properties=species:S:1:pos:R:3:tags:I:1 spacegroup="P 1" stress="0.6042679398871903 -5.454078995478521e-08 -4.9193674964145756e-17 -5.454078995478521e-08 0.6042678768193012 -1.565864244077317e-16 -4.9193674964145756e-17 -1.565864244077317e-16 0.5811092158058867" unit_cell=conventional pbc="T T T" n_minim_iter=7
Ti       1.32054197       0.76241455       3.20478513        0 
Ti      -0.00000061       1.52483017       1.06826171        1 
2
Lattice="2.641081708120996 5.771872479655563e-07 -1.5458133679513272e-18 -1.3205403542016778 2.2872441421180665 1.764533157033609e-19 -2.453875898778362e-18 -1.0933051660090751e-18 4.2730468398177" Properties=species:S:1:pos:R:3:tags:I:1 spacegroup="P 1" stress="0.6042679398871903 -5.454078995478521e-08 -4.9193674964145756e-17 -5.454078995478521e-08 0.6042678768193012 -1.565864244077317e-16 -4.9193674964145756e-17 -1.565864244077317e-16 0.5811092158058867" unit_cell=conventional pbc="T T T" n_minim_iter=8
Ti       1.32054197       0.76241455       3.20478513        0 
Ti      -0.00000061       1.52483017       1.06826171        1 
2
Lattice="2.5530608232779186 5.657618079440726e-07 5.621848782591642e-18 -1.2765299216748605 2.2110158140514002 1.6231246217868365e-17 8.92431099393396e-18 3.490449481294704e-17 4.136005915227692" Properties=species:S:1:pos:R:3:tags:I:1 spacegroup="P 1" stress="1.8840979205489594 -8.589776448975401e-08 -1.367142743982295e-17 -8.589776448975401e-08 1.8840978212216366 2.2587575770142265e-17 -1.367142743982295e-17 2.2587575770142265e-17 1.8667255192651755" unit_cell=conventional pbc="T T T" n_minim_iter=9
Ti       1.27653148       0.73700512       3.10200443        0 
Ti      -0.00000058       1.47401126       1.03400147        1 
2
Lattice="2.5530608232779186 5.657618079440726e-07 5.621848782591642e-18 -1.2765299216748605 2.2110158140514002 1.6231246217868365e-17 8.92431099393396e-18 3.490449481294704e-17 4.136005915227692" Properties=species:S:1:pos:R:3:tags:I:1 spacegroup="P 1" stress="1.8840979205489594 -8.589776448975401e-08 -1.367142743982295e-17 -8.589776448975401e-08 1.8840978212216366 2.2587575770142265e-17 -1.367142743982295e-17 2.2587575770142265e-17 1.8667255192651755" unit_cell=conventional pbc="T T T" n_minim_iter=10
Ti       1.27653148       0.73700512       3.10200443        0 
Ti      -0.00000058       1.47401126       1.03400147        1 
2
Lattice="2.452953876518961 5.480512686177682e-07 6.121794828260523e-18 -1.2264764636331589 2.124320646182377 1.4208694639693595e-17 9.717942086529767e-18 3.1655340067918046e-17 3.9752967086575777" Properties=species:S:1:pos:R:3:tags:I:1 spacegroup="P 1" stress="5.67835739793436 9.617136957230088e-08 1.0183211723416876e-15 9.617136957230088e-08 5.6783575091415 -2.733388409969793e-16 1.0183211723416876e-15 -2.733388409969793e-16 5.688048598417296" unit_cell=conventional pbc="T T T" n_minim_iter=11
Ti       1.22647796       0.70810675       2.98147253        0 
Ti      -0.00000055       1.41621445       0.99382417        1 
2
Lattice="2.452953876518961 5.480512686177682e-07 6.121794828260523e-18 -1.2264764636331589 2.124320646182377 1.4208694639693595e-17 9.717942086529767e-18 3.1655340067918046e-17 3.9752967086575777" Properties=species:S:1:pos:R:3:tags:I:1 spacegroup="P 1" stress="5.67835739793436 9.617136957230088e-08 1.0183211723416876e-15 9.617136957230088e-08 5.6783575091415 -2.733388409969793e-16 1.0183211723416876e-15 -2.733388409969793e-16 5.688048598417296" unit_cell=conventional pbc="T T T" n_minim_iter=12
Ti       1.22647796       0.70810675       2.98147253        0 
Ti      -0.00000055       1.41621445       0.99382417        1 
2
Lattice="2.3569328018950175 5.250037526446177e-07 -1.1171557749245925e-17 -1.1784659462809215 2.0411639447028094 2.6143033310431913e-17 -1.7734104828590402e-17 3.768165906873059e-17 3.8194230951751895" Properties=species:S:1:pos:R:3:tags:I:1 spacegroup="P 1" stress="14.431406983421448 8.280068882325729e-07 -1.691785687590712e-16 8.280068882325729e-07 14.431407940881861 -1.1963341647962892e-15 -1.691785687590712e-16 -1.1963341647962892e-15 14.55332792436137" unit_cell=conventional pbc="T T T" n_minim_iter=13
Ti       1.17846738       0.68038785       2.86456732        0 
Ti      -0.00000052       1.36077662       0.95485577        1 
2
Lattice="2.3569328018950175 5.250037526446177e-07 -1.1171557749245925e-17 -1.1784659462809215 2.0411639447028094 2.6143033310431913e-17 -1.7734104828590402e-17 3.768165906873059e-17 3.8194230951751895" Properties=species:S:1:pos:R:3:tags:I:1 spacegroup="P 1" stress="14.431406983421448 8.280068882325729e-07 -1.691785687590712e-16 8.280068882325729e-07 14.431407940881861 -1.1963341647962892e-15 -1.691785687590712e-16 -1.1963341647962892e-15 14.55332792436137" unit_cell=conventional pbc="T T T" n_minim_iter=14
Ti       1.17846738       0.68038785       2.86456732        0 
Ti      -0.00000052       1.36077662       0.95485577        1 
2
Lattice="2.265275114086479 4.994318353399671e-07 -9.671221694277766e-18 -1.1326371245225821 1.9617860457861271 3.1106596488500833e-17 -1.5352421139159084e-17 4.815498720553547e-17 3.669661373498801" Properties=species:S:1:pos:R:3:tags:I:1 spacegroup="P 1" stress="33.26080441440656 -1.782492720239026e-06 -1.3317905957213445e-15 -1.782492720239026e-06 33.26080235323264 -5.99093021973052e-16 -1.3317905957213445e-15 -5.99093021973052e-16 33.290511626286616" unit_cell=conventional pbc="T T T" n_minim_iter=15
Ti       1.13263849       0.65392856       2.75224603        0 
Ti      -0.00000050       1.30785798       0.91741534        1 
2
Lattice="2.265275114086479 4.994318353399671e-07 -9.671221694277766e-18 -1.1326371245225821 1.9617860457861271 3.1106596488500833e-17 -1.5352421139159084e-17 4.815498720553547e-17 3.669661373498801" Properties=species:S:1:pos:R:3:tags:I:1 spacegroup="P 1" stress="33.26080441440656 -1.782492720239026e-06 -1.3317905957213445e-15 -1.782492720239026e-06 33.26080235323264 -5.99093021973052e-16 -1.3317905957213445e-15 -5.99093021973052e-16 33.290511626286616" unit_cell=conventional pbc="T T T" n_minim_iter=16
Ti       1.13263849       0.65392856       2.75224603        0 
Ti      -0.00000050       1.30785798       0.91741534        1 
2
Lattice="2.1765300951759405 4.845275297877838e-07 -5.773778015283034e-18 -1.0882646279748203 1.884930597476911 2.9498895968071805e-17 -9.165488544957075e-18 4.878008279504755e-17 3.525771892922857" Properties=species:S:1:pos:R:3:tags:I:1 spacegroup="P 1" stress="71.9551003071255 -3.5828039306177122e-06 6.215283130563679e-15 -3.5828039306177122e-06 71.95509616417333 5.090649316751952e-15 6.215283130563679e-15 5.090649316751952e-15 71.23510041153774" unit_cell=conventional pbc="T T T" n_minim_iter=17
Ti       1.08826594       0.62831009       2.64432892        0 
Ti      -0.00000047       1.25662100       0.88144297        1 
2
Lattice="2.1765300951759405 4.845275297877838e-07 -5.773778015283034e-18 -1.0882646279748203 1.884930597476911 2.9498895968071805e-17 -9.165488544957075e-18 4.878008279504755e-17 3.525771892922857" Properties=species:S:1:pos:R:3:tags:I:1 spacegroup="P 1" stress="71.9551003071255 -3.5828039306177122e-06 6.215283130563679e-15 -3.5828039306177122e-06 71.95509616417333 5.090649316751952e-15 6.215283130563679e-15 5.090649316751952e-15 71.23510041153774" unit_cell=conventional pbc="T T T" n_minim_iter=18
Ti       1.08826594       0.62831009       2.64432892        0 
Ti      -0.00000047       1.25662100       0.88144297        1 
2
Lattice="2.091187129442246 4.696939283647545e-07 -1.2848852485548089e-17 -1.0455931579542483 1.8110214136793197 2.6819800485403707e-17 -2.039669865388153e-17 3.738493100767507e-17 3.388880526040613" Properties=species:S:1:pos:R:3:tags:I:1 spacegroup="P 1" stress="148.62800650478806 -1.844484894857139e-06 3.47285692971209e-16 -1.844484894857139e-06 148.62800437192996 -7.612373779274321e-16 3.47285692971209e-16 -7.612373779274321e-16 146.42940745076942" unit_cell=conventional pbc="T T T" n_minim_iter=19
Ti       1.04559442       0.60367370       2.54166039        0 
Ti      -0.00000045       1.20734818       0.84722013        1 
2
Lattice="2.091187129442246 4.696939283647545e-07 -1.2848852485548089e-17 -1.0455931579542483 1.8110214136793197 2.6819800485403707e-17 -2.039669865388153e-17 3.738493100767507e-17 3.388880526040613" Properties=species:S:1:pos:R:3:tags:I:1 spacegroup="P 1" stress="148.62800650478806 -1.844484894857139e-06 3.47285692971209e-16 -1.844484894857139e-06 148.62800437192996 -7.612373779274321e-16 3.47285692971209e-16 -7.612373779274321e-16 146.42940745076942" unit_cell=conventional pbc="T T T" n_minim_iter=20
Ti       1.04559442       0.60367370       2.54166039        0 
Ti      -0.00000045       1.20734818       0.84722013        1 
2
Lattice="2.0091905092593723 4.522743345636504e-07 -1.2538503702144685e-17 -1.0045948629486225 1.7400102488419043 2.6231020215608598e-17 -1.9904040603693952e-17 3.659012696808249e-17 3.2579277825194577" Properties=species:S:1:pos:R:3:tags:I:1 spacegroup="P 1" stress="294.84010957645995 -1.0861082209427932e-06 9.601343917859187e-16 -1.0861082209427932e-06 294.84010832054577 9.552606131474114e-16 9.601343917859187e-16 9.552606131474114e-16 293.29468392284787" unit_cell=conventional pbc="T T T" n_minim_iter=21
Ti       1.00459608       0.58000332       2.44344583        0 
Ti      -0.00000043       1.16000738       0.81448194        1 
2
Lattice="2.0091905092593723 4.522743345636504e-07 -1.2538503702144685e-17 -1.0045948629486225 1.7400102488419043 2.6231020215608598e-17 -1.9904040603693952e-17 3.659012696808249e-17 3.2579277825194577" Properties=species:S:1:pos:R:3:tags:I:1 spacegroup="P 1" stress="294.84010957645995 -1.0861082209427932e-06 9.601343917859187e-16 -1.0861082209427932e-06 294.84010832054577 9.552606131474114e-16 9.601343917859187e-16 9.552606131474114e-16 293.29468392284787" unit_cell=conventional pbc="T T T" n_minim_iter=22
Ti       1.00459608       0.58000332       2.44344583        0 
Ti      -0.00000043       1.16000738       0.81448194        1 
2
Lattice="1.930409022541483 4.34824847726338e-07 -1.2302297517972846e-17 -0.9652041347013767 1.6717834712467343 2.5113224072277538e-17 -1.9529078998044338e-17 3.47576793108321e-17 3.130838958865938" Properties=species:S:1:pos:R:3:tags:I:1 spacegroup="P 1" stress="579.6642390653592 -3.2788177740429456e-05 -4.705171511889392e-14 -3.2788177740429456e-05 579.6642011509625 -5.125850171834732e-14 -4.705171511889392e-14 -5.125850171834732e-14 576.4328533218363" unit_cell=conventional pbc="T T T" n_minim_iter=23
Ti       0.96520530       0.55726107       2.34812922        0 
Ti      -0.00000041       1.11452284       0.78270974        1 
2
Lattice="1.930409022541483 4.34824847726338e-07 -1.2302297517972846e-17 -0.9652041347013767 1.6717834712467343 2.5113224072277538e-17 -1.9529078998044338e-17 3.47576793108321e-17 3.130838958865938" Properties=species:S:1:pos:R:3:tags:I:1 spacegroup="P 1" stress="579.6642390653592 -3.2788177740429456e-05 -4.705171511889392e-14 -3.2788177740429456e-05 579.6642011509625 -5.125850171834732e-14 -4.705171511889392e-14 -5.125850171834732e-14 576.4328533218363" unit_cell=conventional pbc="T T T" n_minim_iter=24
Ti       0.96520530       0.55726107       2.34812922        0 
Ti      -0.00000041       1.11452284       0.78270974        1 
2
Lattice="1.8547166021022172 4.2197153663394077e-07 -5.7335659336845456e-18 -0.9273579356130378 1.6062319058274532 2.683082917113214e-17 -9.1016545402059e-18 4.3926343461722256e-17 3.008747833012711" Properties=species:S:1:pos:R:3:tags:I:1 spacegroup="P 1" stress="1128.8976472532004 -2.3449182341837564e-05 -4.442443809683883e-15 -2.3449182341837564e-05 1128.8976201378896 -9.809881380604355e-15 -4.442443809683883e-15 -9.809881380604355e-15 1117.2611065731123" unit_cell=conventional pbc="T T T" n_minim_iter=25
Ti       0.92735905       0.53541055       2.25656087        0 
Ti      -0.00000039       1.07082178       0.75218696        1 
2
Lattice="1.8547166021022172 4.2197153663394077e-07 -5.7335659336845456e-18 -0.9273579356130378 1.6062319058274532 2.683082917113214e-17 -9.1016545402059e-18 4.3926343461722256e-17 3.008747833012711" Properties=species:S:1:pos:R:3:tags:I:1 spacegroup="P 1" stress="1128.8976472532004 -2.3449182341837564e-05 -4.442443809683883e-15 -2.3449182341837564e-05 1128.8976201378896 -9.809881380604355e-15 -4.442443809683883e-15 -9.809881380604355e-15 1117.2611065731123" unit_cell=conventional pbc="T T T" n_minim_iter=26
Ti       0.92735905       0.53541055       2.25656087        0 
Ti      -0.00000039       1.07082178       0.75218696        1 
2
Lattice="1.7819921239202918 4.069064003735369e-07 -5.226268791543385e-18 -0.8909957095688658 1.543250652690935 2.618468975575714e-17 -8.296354070933122e-18 4.32069037024461e-17 2.891965298410709" Properties=species:S:1:pos:R:3:tags:I:1 spacegroup="P 1" stress="2128.9594908513536 2.887795291118589e-05 -1.075452218360288e-13 2.887795291118589e-05 2128.9595242441865 -1.1307324725750691e-13 -1.075452218360288e-13 -1.1307324725750691e-13 2112.4986296141974" unit_cell=conventional pbc="T T T" n_minim_iter=27
Ti       0.89099678       0.51441681       2.16897397        0 
Ti      -0.00000037       1.02883425       0.72299132        1 
2
Lattice="1.7819921239202918 4.069064003735369e-07 -5.226268791543385e-18 -0.8909957095688658 1.543250652690935 2.618468975575714e-17 -8.296354070933122e-18 4.32069037024461e-17 2.891965298410709" Properties=species:S:1:pos:R:3:tags:I:1 spacegroup="P 1" stress="2128.9594908513536 2.887795291118589e-05 -1.075452218360288e-13 2.887795291118589e-05 2128.9595242441865 -1.1307324725750691e-13 -1.075452218360288e-13 -1.1307324725750691e-13 2112.4986296141974" unit_cell=conventional pbc="T T T" n_minim_iter=28
Ti       0.89099678       0.51441681       2.16897397        0 
Ti      -0.00000037       1.02883425       0.72299132        1 
2
Lattice="1.7121192143894208 3.9002242080667965e-07 -1.5235588903791409e-18 -0.8560592694253856 1.4827389295348554 2.6598182052654546e-17 -2.4185483959332645e-18 4.73583920292927e-17 2.779429194544446" Properties=species:S:1:pos:R:3:tags:I:1 spacegroup="P 1" stress="3910.2651478937146 -3.597818604015362e-05 -5.739984187804483e-14 -3.597818604015362e-05 3910.265106290571 -1.3141542745762895e-13 -5.739984187804483e-14 -1.3141542745762895e-13 3916.9814204417944" unit_cell=conventional pbc="T T T" n_minim_iter=29
Ti       0.85606030       0.49424624       2.08457189        0 
Ti      -0.00000035       0.98849308       0.69485730        1 
2
Lattice="1.7121192143894208 3.9002242080667965e-07 -1.5235588903791409e-18 -0.8560592694253856 1.4827389295348554 2.6598182052654546e-17 -2.4185483959332645e-18 4.73583920292927e-17 2.779429194544446" Properties=species:S:1:pos:R:3:tags:I:1 spacegroup="P 1" stress="3910.2651478937146 -3.597818604015362e-05 -5.739984187804483e-14 -3.597818604015362e-05 3910.265106290571 -1.3141542745762895e-13 -5.739984187804483e-14 -1.3141542745762895e-13 3916.9814204417944" unit_cell=conventional pbc="T T T" n_minim_iter=30
Ti       0.85606030       0.49424624       2.08457189        0 
Ti      -0.00000035       0.98849308       0.69485730        1 
2
Lattice="1.6450988869801169 3.753595465418007e-07 -4.8872595049604815e-19 -0.8225491184191552 1.4246976160761466 2.7002011745769207e-17 -7.758199378358342e-19 4.9047045732687605e-17 2.670446216989952" Properties=species:S:1:pos:R:3:tags:I:1 spacegroup="P 1" stress="7065.615536938393 -0.00011713663284389306 -7.911275153556417e-15 -0.00011713663284389306 7065.615401488211 1.6177316009066035e-14 -7.911275153556417e-15 1.6177316009066035e-14 7066.18464024525" unit_cell=conventional pbc="T T T" n_minim_iter=31
Ti       0.82255011       0.47489914       2.00283466        0 
Ti      -0.00000034       0.94979886       0.66761155        1 
2
Lattice="1.6450988869801169 3.753595465418007e-07 -4.8872595049604815e-19 -0.8225491184191552 1.4246976160761466 2.7002011745769207e-17 -7.758199378358342e-19 4.9047045732687605e-17 2.670446216989952" Properties=species:S:1:pos:R:3:tags:I:1 spacegroup="P 1" stress="7065.615536938393 -0.00011713663284389306 -7.911275153556417e-15 -0.00011713663284389306 7065.615401488211 1.6177316009066035e-14 -7.911275153556417e-15 1.6177316009066035e-14 7066.18464024525" unit_cell=conventional pbc="T T T" n_minim_iter=32
Ti       0.82255011       0.47489914       2.00283466        0 
Ti      -0.00000034       0.94979886       0.66761155        1 
2
Lattice="1.5805987289559433 3.616907180990544e-07 -3.9798219070297644e-19 -0.7902990512446212 1.3688388338252386 2.578073638045527e-17 -6.317702551656276e-19 4.6891602535076235e-17 2.5657365231082188" Properties=species:S:1:pos:R:3:tags:I:1 spacegroup="P 1" stress="12659.467097620181 -0.0005659333974198244 -1.8465027644516888e-13 -0.0005659333974198244 12659.46644320676 -8.095510059307453e-13 -1.8465027644516888e-13 -8.095510059307453e-13 12575.905619263483" unit_cell=conventional pbc="T T T" n_minim_iter=33
Ti       0.79030000       0.45627955       1.92430239        0 
Ti      -0.00000032       0.91255965       0.64143413        1 
2
Lattice="1.5805987289559433 3.616907180990544e-07 -3.9798219070297644e-19 -0.7902990512446212 1.3688388338252386 2.578073638045527e-17 -6.317702551656276e-19 4.6891602535076235e-17 2.5657365231082188" Properties=species:S:1:pos:R:3:tags:I:1 spacegroup="P 1" stress="12659.467097620181 -0.0005659333974198244 -1.8465027644516888e-13 -0.0005659333974198244 12659.46644320676 -8.095510059307453e-13 -1.8465027644516888e-13 -8.095510059307453e-13 12575.905619263483" unit_cell=conventional pbc="T T T" n_minim_iter=34
Ti       0.79030000       0.45627955       1.92430239        0 
Ti      -0.00000032       0.91255965       0.64143413        1 
2
Lattice="1.518622566318456 3.5022418501649613e-07 5.1367666401416335e-19 -0.7593109798561865 1.3151658968025173 2.772747362521181e-17 8.15427535899609e-19 5.129553198544271e-17 2.465783506041863" Properties=species:S:1:pos:R:3:tags:I:1 spacegroup="P 1" stress="22099.500799990252 -0.0007155065349411438 1.9372236425833405e-12 -0.0007155065349411438 22099.49997261889 -5.0497846662322336e-14 1.9372236425833405e-12 -5.0497846662322336e-14 21879.358626966634" unit_cell=conventional pbc="T T T" n_minim_iter=35
Ti       0.75931189       0.43838857       1.84933763        0 
Ti      -0.00000031       0.87677768       0.61644587        1 
2
Lattice="1.518622566318456 3.5022418501649613e-07 5.1367666401416335e-19 -0.7593109798561865 1.3151658968025173 2.772747362521181e-17 8.15427535899609e-19 5.129553198544271e-17 2.465783506041863" Properties=species:S:1:pos:R:3:tags:I:1 spacegroup="P 1" stress="22099.500799990252 -0.0007155065349411438 1.9372236425833405e-12 -0.0007155065349411438 22099.49997261889 -5.0497846662322336e-14 1.9372236425833405e-12 -5.0497846662322336e-14 21879.358626966634" unit_cell=conventional pbc="T T T" n_minim_iter=36
Ti       0.75931189       0.43838857       1.84933763        0 
Ti      -0.00000031       0.87677768       0.61644587        1 
2
Lattice="1.4590765237771726 3.3838129585452006e-07 -4.6816743824120965e-18 -0.7295379688417876 1.2635975053286406 2.9350077134684194e-17 -7.431846671215259e-18 4.9508214943472486e-17 2.3700429224284645" Properties=species:S:1:pos:R:3:tags:I:1 spacegroup="P 1" stress="37612.223780178494 -0.0005763947836815502 2.365974709322417e-13 -0.0005763947836815502 37612.223113668 -2.2684087419276782e-13 2.365974709322417e-13 -2.2684087419276782e-13 37462.99246328824" unit_cell=conventional pbc="T T T" n_minim_iter=37
Ti       0.72953885       0.42119911       1.77753219        0 
Ti      -0.00000029       0.84239873       0.59251073        1 
2
Lattice="1.4590765237771726 3.3838129585452006e-07 -4.6816743824120965e-18 -0.7295379688417876 1.2635975053286406 2.9350077134684194e-17 -7.431846671215259e-18 4.9508214943472486e-17 2.3700429224284645" Properties=species:S:1:pos:R:3:tags:I:1 spacegroup="P 1" stress="37612.223780178494 -0.0005763947836815502 2.365974709322417e-13 -0.0005763947836815502 37612.223113668 -2.2684087419276782e-13 2.365974709322417e-13 -2.2684087419276782e-13 37462.99246328824" unit_cell=conventional pbc="T T T" n_minim_iter=38
Ti       0.72953885       0.42119911       1.77753219        0 
Ti      -0.00000029       0.84239873       0.59251073        1 
2
Lattice="1.4018653149601912 3.259725004285497e-07 -4.855309216023456e-18 -0.7009323751796289 1.2140511388898647 2.8676209568227846e-17 -7.707480419907698e-18 4.811387153601567e-17 2.2774736282635697" Properties=species:S:1:pos:R:3:tags:I:1 spacegroup="P 1" stress="61952.00097505089 -0.0015410785174009454 3.230387806702448e-13 -0.0015410785174009454 61951.999193034804 -1.3652243613783245e-12 3.230387806702448e-13 -1.3652243613783245e-12 61553.782807297306" unit_cell=conventional pbc="T T T" n_minim_iter=39
Ti       0.70093322       0.40468366       1.70810522        0 
Ti      -0.00000028       0.80936781       0.56936840        1 
2
Lattice="1.4018653149601912 3.259725004285497e-07 -4.855309216023456e-18 -0.7009323751796289 1.2140511388898647 2.8676209568227846e-17 -7.707480419907698e-18 4.811387153601567e-17 2.2774736282635697" Properties=species:S:1:pos:R:3:tags:I:1 spacegroup="P 1" stress="61952.00097505089 -0.0015410785174009454 3.230387806702448e-13 -0.0015410785174009454 61951.999193034804 -1.3652243613783245e-12 3.230387806702448e-13 -1.3652243613783245e-12 61553.782807297306" unit_cell=conventional pbc="T T T" n_minim_iter=40
Ti       0.70093322       0.40468366       1.70810522        0 
Ti      -0.00000028       0.80936781       0.56936840        1 
2
Lattice="1.3468973897276968 3.145311186906521e-07 -4.949771829656383e-18 -0.673448422471909 1.166447513508231 2.873779147361224e-17 -7.857433535681727e-18 4.81401763309657e-17 2.188735292127212" Properties=species:S:1:pos:R:3:tags:I:1 spacegroup="P 1" stress="96449.16632219346 -0.0015584662412294723 -1.1549517499952947e-11 -0.0015584662412294723 96449.16452007095 1.153212162529693e-11 -1.1549517499952947e-11 1.153212162529693e-11 96184.46650075054" unit_cell=conventional pbc="T T T" n_minim_iter=41
Ti       0.67344924       0.38881579       1.64155147        0 
Ti      -0.00000027       0.77763204       0.54718382        1 
2
Lattice="1.3468973897276968 3.145311186906521e-07 -4.949771829656383e-18 -0.673448422471909 1.166447513508231 2.873779147361224e-17 -7.857433535681727e-18 4.81401763309657e-17 2.188735292127212" Properties=species:S:1:pos:R:3:tags:I:1 spacegroup="P 1" stress="96449.16632219346 -0.0015584662412294723 -1.1549517499952947e-11 -0.0015584662412294723 96449.16452007095 1.153212162529693e-11 -1.1549517499952947e-11 1.153212162529693e-11 96184.46650075054" unit_cell=conventional pbc="T T T" n_minim_iter=42
Ti       0.67344924       0.38881579       1.64155147        0 
Ti      -0.00000027       0.77763204       0.54718382        1 
2
Lattice="1.2940847876722021 3.030345920248661e-07 1.5160122396261358e-18 -0.647042131400446 1.120710452723593 1.905300801493161e-17 2.406568589843323e-18 3.631379291248603e-17 2.1031446200324737" Properties=species:S:1:pos:R:3:tags:I:1 spacegroup="P 1" stress="139756.88366853102 -0.009637380992613628 -3.3544965164804034e-13 -0.009637380992613628 139756.87252440778 -3.899602200408469e-12 -3.3544965164804034e-13 -3.899602200408469e-12 139376.67452946678" unit_cell=conventional pbc="T T T" n_minim_iter=43
Ti       0.64704291       0.37357010       1.57735846        0 
Ti      -0.00000026       0.74714065       0.52578615        1 
2
Lattice="1.2940847876722021 3.030345920248661e-07 1.5160122396261358e-18 -0.647042131400446 1.120710452723593 1.905300801493161e-17 2.406568589843323e-18 3.631379291248603e-17 2.1031446200324737" Properties=species:S:1:pos:R:3:tags:I:1 spacegroup="P 1" stress="139756.88366853102 -0.009637380992613628 -3.3544965164804034e-13 -0.009637380992613628 139756.87252440778 -3.899602200408469e-12 -3.3544965164804034e-13 -3.899602200408469e-12 139376.67452946678" unit_cell=conventional pbc="T T T" n_minim_iter=44
Ti       0.64704291       0.37357010       1.57735846        0 
Ti      -0.00000026       0.74714065       0.52578615        1 
2
Lattice="1.2433429973631291 2.945819836901503e-07 1.5774419988408499e-18 -0.6216712435660829 1.0767667690441018 1.94626280484523e-17 2.5040842464743183e-18 3.71209313425892e-17 2.020899042516529" Properties=species:S:1:pos:R:3:tags:I:1 spacegroup="P 1" stress="177009.84251939872 -0.015887812297571084 -7.28779112795237e-14 -0.015887812297571084 177009.82414763005 -5.30826948373828e-12 -7.28779112795237e-14 -5.30826948373828e-12 175530.47872593193" unit_cell=conventional pbc="T T T" n_minim_iter=45
Ti       0.62167200       0.35892221       1.51567428        0 
Ti      -0.00000025       0.71784485       0.50522476        1 
2
Lattice="1.2672408065870393 2.278091849641381e-08 2.741152945387718e-17 -0.6336203835646653 1.0974627426395587 -1.7771826214046442e-17 4.351397967574077e-17 -7.453132576050872e-18 1.9416584576429226" Properties=species:S:1:pos:R:3:tags:I:1 spacegroup="P 1" stress="178751.58113799387 0.00647979129184255 -8.738515161436453e-11 0.00647979129184255 178751.5886308614 3.954826233682333e-12 -8.738515161436453e-11 3.954826233682333e-12 173744.78861645362" unit_cell=conventional pbc="T T T" n_minim_iter=46
Ti       0.63362033       0.36582098       1.45624384        0 
Ti       0.00000009       0.73164179       0.48541461        1 
2
Lattice="1.2672408065870393 2.278091849641381e-08 2.741152945387718e-17 -0.6336203835646653 1.0974627426395587 -1.7771826214046442e-17 4.351397967574077e-17 -7.453132576050872e-18 1.9416584576429226" Properties=species:S:1:pos:R:3:tags:I:1 spacegroup="P 1" stress="178751.58113799387 0.00647979129184255 -8.738515161436453e-11 0.00647979129184255 178751.5886308614 3.954826233682333e-12 -8.738515161436453e-11 3.954826233682333e-12 173744.78861645362" unit_cell=conventional pbc="T T T" n_minim_iter=47
Ti       0.63362033       0.36582098       1.45624384        0 
Ti       0.00000009       0.73164179       0.48541461        1 
2