2
Lattice="1.6221331663735423 0.4535522146243599 -0.17977926877088357 -0.4273898400570429 1.0663199184881043 0.2884137927734263 -0.2851042715947964 0.35070032477366736 1.2214336993587545" Properties=species:S:1:pos:R:3:tags:I:1 spacegroup="P 1" stress="2452.4708731481664 0.0013244284474908928 0.0016869428862467965 0.0013244284474908928 2452.4708338948553 0.000862310328050658 0.0016869428862467965 0.000862310328050658 2452.4703169576155" unit_cell=conventional pbc="T T T" n_minim_iter=0
Ti       0.78907675       1.13634936       0.92544772        0 
Ti       0.12056230       0.73422310       0.40462050        1 
