 +-------------------------------------------------+
 |                                                 |
 |      CCC   AA    SSS  TTTTT  EEEEE  PPPP        |
 |     C     A  A  S       T    E      P   P       |
 |     C     AAAA   SS     T    EEE    PPPP        |
 |     C     A  A     S    T    E      P           |
 |      CCC  A  A  SSS     T    EEEEE  P           |
 |                                                 |
 +-------------------------------------------------+
 |                                                 |
 | Welcome to Academic Release CASTEP version 17.21|          
 | Ab Initio Total Energy Program                  |
 |                                                 |
 | Authors:                                        |
 | M. Segall, M. Probert, C. Pickard, P. Hasnip,   |
 | S. Clark, K. Refson, J. R. Yates, M. Payne      |
 |                                                 |
 | Contributors:                                   |
 | P. Lindan, P. Haynes, J. White, V. Milman,      |
 | N. Govind, M. Gibson, P. Tulip, V. Cocula,      |
 | B. Montanari, D. Quigley, M. Glover,            |
 | L. Bernasconi, A. Perlov, M. Plummer,           |
 | E. McNellis, J. Meyer, J. Gale, D. Jochym       |
 | J. Aarons, B. Walker, R. Gillen, D. Jones       |
 | T. Green, I. J. Bush, C. J. Armstrong,          |
 | E. J. Higgins, E. L. Brown, M. S. McFly,        |
 | J. Wilkins, B-C. Shih, P. J. P. Byrne           |
 |                                                 |
 | Copyright (c) 2000 - 2017                       |
 |                                                 |
 |     Distributed under the terms of an           |
 |     Agreement between the United Kingdom        |
 |     Car-Parrinello (UKCP) Consortium,           |
 |     Daresbury Laboratory and Accelrys, Inc.     |
 |                                                 |
 | Please cite                                     |
 |                                                 |
 |     "First principles methods using CASTEP"     |
 |                                                 |
 |         Zeitschrift fuer Kristallographie       |
 |           220(5-6) pp. 567-570 (2005)           |
 |                                                 |
 | S. J. Clark, M. D. Segall, C. J. Pickard,       |
 | P. J. Hasnip, M. J. Probert, K. Refson,         |
 | M. C. Payne                                     |
 |                                                 |
 |       in all publications arising from          |
 |              your use of CASTEP                 |
 |                                                 |
 +-------------------------------------------------+


 Compiled for linux_x86_64_gfortran6.0-XT on Fri, 21 Jul 2017 10:20:05 +0100
 from code version 056e886bd5a1+ Castep172_branch Mon, 15 May 2017 14:45:35 +0100
 Compiler: GNU Fortran 6.3.0; Optimisation: fast
 MATHLIBS: Intel MKL(2017.0.0) (LAPACK version 3.6.0)
 FFT Lib : fftw3 version commercial-fftw-3.3.4-sse2-avx
 Fundamental constants values: CODATA 2010

 Run started: Wed, 11 Dec 2019 23:25:19 +0000

 Atomic calculation performed for Ti: 1s2 2s2 2p6 3s2 3p6 3d2 4s2

 Converged in 78 iterations to an ae energy of -23176.516 eV

   ============================================================                
   | Pseudopotential Report - Date of generation 11-12-2019   |                
   ------------------------------------------------------------                
   | Element: Ti Ionic charge: 12.00 Level of theory: LDA     |                
   | Atomic Solver: Koelling-Harmon                           |                
   |                                                          |                
   |               Reference Electronic Structure             |                
   |         Orbital         Occupation         Energy        |                
   |            3s              2.000           -2.288        |                
   |            3p              6.000           -1.425        |                
   |            4s              2.000           -0.169        |                
   |            3d              2.000           -0.164        |                
   |                                                          |                
   |                 Pseudopotential Definition               |                
   |        Beta     l      e      Rc     scheme   norm       |                
   |          1      0   -2.288   1.793     qc      0         |                
   |          2      0   -0.169   1.793     qc      0         |                
   |          3      0    0.250   1.793     qc      0         |                
   |          4      1   -1.425   1.793     qc      0         |                
   |          5      1    0.250   1.793     qc      0         |                
   |          6      2   -0.164   1.793     qc      0         |                
   |          7      2    0.250   1.793     qc      0         |                
   |         loc     3    0.000   1.793     pn      0         |                
   |                                                          |                
   | Augmentation charge Rinner = 1.263                       |                
   | Partial core correction Rc = 1.263                       |                
   ------------------------------------------------------------                
   | "3|1.8|9|10|11|30U:40:31:32(qc=5.5)"                     |                
   ------------------------------------------------------------                
   |      Author: Chris J. Pickard, Cambridge University      |                
   ============================================================                

 Pseudo atomic calculation performed for Ti 3s2 3p6 3d2 4s2

 Converged in 31 iterations to a total energy of -1585.9719 eV

 Calculation parallelised over 42 processes.
 Data is distributed by G-vector(3-way) and k-point(14-way)

 ************************************ Title ************************************
 

 ***************************** General Parameters ******************************
  
 output verbosity                               : normal  (1)
 write checkpoint data to                       : castep.check
 type of calculation                            : single point energy
 stress calculation                             : on
 density difference calculation                 : off
 electron localisation func (ELF) calculation   : off
 Hirshfeld analysis                             : off
 unlimited duration calculation
 timing information                             : on
 memory usage estimate                          : on
 write final potential to formatted file        : off
 write final density to formatted file          : off
 write BibTeX reference list                    : on
 write OTFG pseudopotential files               : on
 write electrostatic potential file             : on
 write bands file                               : on
 checkpoint writing                             : off
  
 output         length unit                     : A
 output           mass unit                     : amu
 output           time unit                     : ps
 output         charge unit                     : e
 output           spin unit                     : hbar/2
 output         energy unit                     : eV
 output          force unit                     : eV/A
 output       velocity unit                     : A/ps
 output       pressure unit                     : GPa
 output     inv_length unit                     : 1/A
 output      frequency unit                     : cm-1
 output force constant unit                     : eV/A**2
 output         volume unit                     : A**3
 output   IR intensity unit                     : (D/A)**2/amu
 output         dipole unit                     : D
 output         efield unit                     : eV/A/e
 output        entropy unit                     : J/mol/K
  
 wavefunctions paging                           : none
 random number generator seed                   : randomised (232520274)
 data distribution                              : optimal for this architecture
 optimization strategy                          : balance speed and memory

 *********************** Exchange-Correlation Parameters ***********************
  
 using functional                               : Local Density Approximation
 relativistic treatment                         : Koelling-Harmon
 DFT+D: Semi-empirical dispersion correction    : off

 ************************* Pseudopotential Parameters **************************
  
 pseudopotential representation                 : reciprocal space
 <beta|phi> representation                      : reciprocal space
 spin-orbit coupling                            : off

 **************************** Basis Set Parameters *****************************
  
 plane wave basis set cut-off                   :   500.0000   eV
 size of standard grid                          :     1.7500
 size of   fine   gmax                          :    20.0476   1/A
 finite basis set correction                    : automatic
 number of sample energies                      :          3
           sample  spacing                      :     5.0000   eV

 **************************** Electronic Parameters ****************************
  
 number of  electrons                           :  648.0    
 net charge of system                           :  0.000    
 treating system as non-spin-polarized
 number of bands                                :        389

 ********************* Electronic Minimization Parameters **********************
  
 Method: Treating system as metallic with density mixing treatment of electrons,
         and number of  SD  steps               :          1
         and number of  CG  steps               :          4
  
 total energy / atom convergence tol.           : 0.1000E-04   eV
 eigen-energy convergence tolerance             : 0.1000E-05   eV
 max force / atom convergence tol.              : ignored
 convergence tolerance window                   :          3   cycles
 max. number of SCF cycles                      :        250
 number of fixed-spin iterations                :         10
 smearing scheme                                : Gaussian
 smearing width                                 : 0.1000       eV
 Fermi energy convergence tolerance             : 0.2721E-13   eV
 periodic dipole correction                     : NONE

 ************************** Density Mixing Parameters **************************
  
 density-mixing scheme                          : Pulay
 max. length of mixing history                  :         20
 charge density mixing amplitude                : 0.8000    
 cut-off energy for mixing                      :  500.0       eV

 *********************** Population Analysis Parameters ************************
  
 Population analysis with cutoff                :  3.000       A

 *******************************************************************************
  

                           -------------------------------
                                      Unit Cell
                           -------------------------------
        Real Lattice(A)                      Reciprocal Lattice(1/A)
   9.4971920   0.0000000   0.0000000        0.6615835   0.0000000   0.0000000
   0.0000000   9.4971920   0.0000000        0.0000000   0.6615835   0.0000000
   0.0000000   0.0000000   9.4971920        0.0000000   0.0000000   0.6615835

                       Lattice parameters(A)       Cell Angles
                    a =    9.497192          alpha =   90.000000
                    b =    9.497192          beta  =   90.000000
                    c =    9.497192          gamma =   90.000000

                       Current cell volume =  856.614959       A**3
                                   density =    3.017479   AMU/A**3
                                           =    5.010642     g/cm^3

                           -------------------------------
                                     Cell Contents
                           -------------------------------
                         Total number of ions in cell =   54
                      Total number of species in cell =    1
                        Max number of any one species =   54

            xxxxxxxxxxxxxxxxxxxxxxxxxxxxxxxxxxxxxxxxxxxxxxxxxxxxxxxxxxxx
            x  Element    Atom        Fractional coordinates of atoms  x
            x            Number           u          v          w      x
            x----------------------------------------------------------x
            x  Ti           1         0.001053   0.000000   0.000000   x 
            x  Ti           2         0.333333   0.000000   0.000000   x 
            x  Ti           3         0.666667   0.000000   0.000000   x 
            x  Ti           4         0.000000   0.333333   0.000000   x 
            x  Ti           5         0.333333   0.333333   0.000000   x 
            x  Ti           6         0.666667   0.333333   0.000000   x 
            x  Ti           7         0.000000   0.666667   0.000000   x 
            x  Ti           8         0.333333   0.666667   0.000000   x 
            x  Ti           9         0.666667   0.666667   0.000000   x 
            x  Ti          10         0.000000   0.000000   0.333333   x 
            x  Ti          11         0.333333   0.000000   0.333333   x 
            x  Ti          12         0.666667   0.000000   0.333333   x 
            x  Ti          13         0.000000   0.333333   0.333333   x 
            x  Ti          14         0.333333   0.333333   0.333333   x 
            x  Ti          15         0.666667   0.333333   0.333333   x 
            x  Ti          16         0.000000   0.666667   0.333333   x 
            x  Ti          17         0.333333   0.666667   0.333333   x 
            x  Ti          18         0.666667   0.666667   0.333333   x 
            x  Ti          19         0.000000   0.000000   0.666667   x 
            x  Ti          20         0.333333   0.000000   0.666667   x 
            x  Ti          21         0.666667   0.000000   0.666667   x 
            x  Ti          22         0.000000   0.333333   0.666667   x 
            x  Ti          23         0.333333   0.333333   0.666667   x 
            x  Ti          24         0.666667   0.333333   0.666667   x 
            x  Ti          25         0.000000   0.666667   0.666667   x 
            x  Ti          26         0.333333   0.666667   0.666667   x 
            x  Ti          27         0.666667   0.666667   0.666667   x 
            x  Ti          28         0.166667   0.166667   0.166667   x 
            x  Ti          29         0.500000   0.166667   0.166667   x 
            x  Ti          30         0.833333   0.166667   0.166667   x 
            x  Ti          31         0.166667   0.500000   0.166667   x 
            x  Ti          32         0.500000   0.500000   0.166667   x 
            x  Ti          33         0.833333   0.500000   0.166667   x 
            x  Ti          34         0.166667   0.833333   0.166667   x 
            x  Ti          35         0.500000   0.833333   0.166667   x 
            x  Ti          36         0.833333   0.833333   0.166667   x 
            x  Ti          37         0.166667   0.166667   0.500000   x 
            x  Ti          38         0.500000   0.166667   0.500000   x 
            x  Ti          39         0.833333   0.166667   0.500000   x 
            x  Ti          40         0.166667   0.500000   0.500000   x 
            x  Ti          41         0.500000   0.500000   0.500000   x 
            x  Ti          42         0.833333   0.500000   0.500000   x 
            x  Ti          43         0.166667   0.833333   0.500000   x 
            x  Ti          44         0.500000   0.833333   0.500000   x 
            x  Ti          45         0.833333   0.833333   0.500000   x 
            x  Ti          46         0.166667   0.166667   0.833333   x 
            x  Ti          47         0.500000   0.166667   0.833333   x 
            x  Ti          48         0.833333   0.166667   0.833333   x 
            x  Ti          49         0.166667   0.500000   0.833333   x 
            x  Ti          50         0.500000   0.500000   0.833333   x 
            x  Ti          51         0.833333   0.500000   0.833333   x 
            x  Ti          52         0.166667   0.833333   0.833333   x 
            x  Ti          53         0.500000   0.833333   0.833333   x 
            x  Ti          54         0.833333   0.833333   0.833333   x 
            xxxxxxxxxxxxxxxxxxxxxxxxxxxxxxxxxxxxxxxxxxxxxxxxxxxxxxxxxxxx


                         No user defined ionic velocities

                           -------------------------------
                                   Details of Species
                           -------------------------------

                               Mass of species in AMU
                                    Ti   47.8670000

                          Electric Quadrupole Moment (Barn)
                                    Ti    0.3020000 Isotope 47

                          Files used for pseudopotentials:
                                    Ti 3|1.8|9|10|11|30U:40:31:32(qc=5.5)

                           -------------------------------
                              k-Points For BZ Sampling
                           -------------------------------
                       MP grid size for SCF calculation is  3  3  3
                            with an offset of   0.000  0.000  0.000
                       Number of kpoints used =            14

                           -------------------------------
                               Symmetry and Constraints
                           -------------------------------

                      Maximum deviation from symmetry =  0.00000         ANG

                      Number of symmetry operations   =           1
                      Number of ionic constraints     =           3
                      Point group of crystal =     1: C1, 1, 1
                      Space group of crystal =    99: P4mm, P 4 -2

             Set iprint > 1 for details on symmetry rotations/translations

                         Centre of mass is constrained
             Set iprint > 1 for details of linear ionic constraints

                         Number of cell constraints= 0
                         Cell constraints are:  1 2 3 4 5 6

                         External pressure/stress (GPa)
                          0.00000   0.00000   0.00000
                                    0.00000   0.00000
                                              0.00000
  
+---------------- MEMORY AND SCRATCH DISK ESTIMATES PER PROCESS --------------+
|                                                     Memory          Disk    |
| Baseline code, static data and system overhead      172.0 MB         0.0 MB |
| BLAS internal memory storage                          0.0 MB         0.0 MB |
| Model and support data                              202.5 MB       128.8 MB |
| Electronic energy minimisation requirements         227.0 MB         0.0 MB |
| Force calculation requirements                       17.1 MB         0.0 MB |
| Stress calculation requirements                      18.5 MB         0.0 MB |
|                                               ----------------------------- |
| Approx. total storage required per process          601.4 MB       128.8 MB |
|                                                                             |
| Requirements will fluctuate during execution and may exceed these estimates |
+-----------------------------------------------------------------------------+
Calculating finite basis set correction with  3 cut-off energies.
Calculating total energy with cut-off of  490.000 eV.
------------------------------------------------------------------------ <-- SCF
SCF loop      Energy           Fermi           Energy gain       Timer   <-- SCF
                               energy          per atom          (sec)   <-- SCF
------------------------------------------------------------------------ <-- SCF
Initial  -7.82533116E+004  0.00000000E+000                        17.13  <-- SCF
      1  -8.39522029E+004  1.17930180E+001   1.05535025E+002      81.20  <-- SCF
      2  -8.59535925E+004  9.91523554E+000   3.70627690E+001     130.57  <-- SCF
      3  -8.60539822E+004  9.72132259E+000   1.85906930E+000     183.60  <-- SCF
      4  -8.60547174E+004  9.06378811E+000   1.36140293E-002     232.53  <-- SCF
      5  -8.60530547E+004  9.29448933E+000  -3.07906492E-002     294.17  <-- SCF
      6  -8.60528066E+004  9.29408942E+000  -4.59416845E-003     348.55  <-- SCF
      7  -8.60529105E+004  9.28436064E+000   1.92461114E-003     402.12  <-- SCF
      8  -8.60527753E+004  9.28166079E+000  -2.50451759E-003     454.72  <-- SCF
      9  -8.60527739E+004  9.28204382E+000  -2.47663349E-005     501.50  <-- SCF
     10  -8.60527732E+004  9.28317904E+000  -1.41295959E-005     542.50  <-- SCF
     11  -8.60527728E+004  9.28349623E+000  -6.45055417E-006     576.60  <-- SCF
     12  -8.60527729E+004  9.28366071E+000   1.57984910E-006     609.89  <-- SCF
------------------------------------------------------------------------ <-- SCF
 
Final energy, E             =  -86052.23571923     eV
Final free energy (E-TS)    =  -86052.77289913     eV
(energies not corrected for finite basis set)
 
NB est. 0K energy (E-0.5TS)      =  -86052.50430918     eV
 
Calculating total energy with cut-off of  495.000 eV.
------------------------------------------------------------------------ <-- SCF
SCF loop      Energy           Fermi           Energy gain       Timer   <-- SCF
                               energy          per atom          (sec)   <-- SCF
------------------------------------------------------------------------ <-- SCF
Initial  -8.60522338E+004  0.00000000E+000                       620.02  <-- SCF
      1  -8.60528509E+004  9.28443379E+000   1.14287298E-002     684.91  <-- SCF
      2  -8.60528513E+004  9.28443055E+000   6.12130347E-006     727.89  <-- SCF
      3  -8.60567023E+004  9.29526715E+000   7.13149521E-002     785.56  <-- SCF
      4  -8.60527528E+004  9.28539347E+000  -7.31388823E-002     844.34  <-- SCF
      5  -8.60527757E+004  9.28489431E+000   4.24633946E-004     901.71  <-- SCF
      6  -8.60527764E+004  9.28422147E+000   1.23327265E-005     953.59  <-- SCF
      7  -8.60527745E+004  9.28389651E+000  -3.42969236E-005    1000.23  <-- SCF
      8  -8.60527745E+004  9.28389858E+000  -6.25093990E-007    1036.95  <-- SCF
      9  -8.60527745E+004  9.28388922E+000  -2.59570073E-007    1074.10  <-- SCF
------------------------------------------------------------------------ <-- SCF
 
Final energy, E             =  -86052.23729997     eV
Final free energy (E-TS)    =  -86052.77446119     eV
(energies not corrected for finite basis set)
 
NB est. 0K energy (E-0.5TS)      =  -86052.50588058     eV
 
Calculating total energy with cut-off of  500.000 eV.
------------------------------------------------------------------------ <-- SCF
SCF loop      Energy           Fermi           Energy gain       Timer   <-- SCF
                               energy          per atom          (sec)   <-- SCF
------------------------------------------------------------------------ <-- SCF
Initial  -8.60522365E+004  0.00000000E+000                      1084.70  <-- SCF
      1  -8.60528094E+004  9.28377498E+000   1.06091137E-002    1148.11  <-- SCF
      2  -8.60528096E+004  9.28377353E+000   2.37460100E-006    1188.23  <-- SCF
      3  -8.60545503E+004  9.29095788E+000   3.22362105E-002    1246.73  <-- SCF
      4  -8.60527633E+004  9.28457675E+000  -3.30932393E-002    1306.69  <-- SCF
      5  -8.60527769E+004  9.28424221E+000   2.51855283E-004    1358.09  <-- SCF
      6  -8.60527765E+004  9.28387714E+000  -7.61364445E-006    1405.12  <-- SCF
      7  -8.60527761E+004  9.28381372E+000  -7.27701110E-006    1442.56  <-- SCF
      8  -8.60527761E+004  9.28381363E+000   2.56148119E-009    1479.46  <-- SCF
------------------------------------------------------------------------ <-- SCF
 
Final energy, E             =  -86052.23893044     eV
Final free energy (E-TS)    =  -86052.77607242     eV
(energies not corrected for finite basis set)
 
NB est. 0K energy (E-0.5TS)      =  -86052.50750143     eV
 
 For future reference: finite basis dEtot/dlog(Ecut) =      -0.155822eV
 Total energy corrected for finite basis set =  -86052.776103 eV

 ******************* Unconstrained Forces *******************
 *                                                          *
 *               Cartesian components (eV/A)                *
 * -------------------------------------------------------- *
 *                         x            y            z      *
 *                                                          *
 * Ti              1     -0.02505     -0.00086      0.00162 *
 * Ti              2     -0.00954     -0.00106      0.00129 *
 * Ti              3     -0.00915     -0.00122      0.00155 *
 * Ti              4      0.00131      0.00150      0.00117 *
 * Ti              5     -0.00091      0.00543      0.00088 *
 * Ti              6     -0.00054     -0.00123      0.00138 *
 * Ti              7      0.00130     -0.00039      0.00121 *
 * Ti              8     -0.00120     -0.00424      0.00118 *
 * Ti              9     -0.00066      0.00321      0.00113 *
 * Ti             10      0.00283     -0.00069     -0.00133 *
 * Ti             11     -0.00295     -0.00063      0.00241 *
 * Ti             12     -0.00033     -0.00137     -0.00669 *
 * Ti             13      0.00668      0.00140     -0.00019 *
 * Ti             14     -0.00400      0.00141     -0.00012 *
 * Ti             15     -0.00226      0.00242     -0.00179 *
 * Ti             16      0.00623     -0.00074     -0.00082 *
 * Ti             17     -0.00410     -0.00098     -0.00107 *
 * Ti             18     -0.00232     -0.00064     -0.00180 *
 * Ti             19      0.00207     -0.00040     -0.00044 *
 * Ti             20     -0.00225     -0.00057     -0.00393 *
 * Ti             21     -0.00059     -0.00154      0.00477 *
 * Ti             22      0.00715      0.00194     -0.00072 *
 * Ti             23     -0.00441      0.00219     -0.00056 *
 * Ti             24     -0.00271      0.00297      0.00074 *
 * Ti             25      0.00647     -0.00147     -0.00041 *
 * Ti             26     -0.00387     -0.00159     -0.00009 *
 * Ti             27     -0.00257     -0.00129      0.00036 *
 * Ti             28      0.00906      0.00716      0.00670 *
 * Ti             29     -0.00568      0.00165      0.00130 *
 * Ti             30      0.01013     -0.00442     -0.00478 *
 * Ti             31      0.00326      0.00181      0.00096 *
 * Ti             32     -0.00903      0.00116      0.00107 *
 * Ti             33      0.00382      0.00227      0.00107 *
 * Ti             34      0.00828     -0.00894      0.00592 *
 * Ti             35     -0.00485     -0.00309      0.00093 *
 * Ti             36      0.01005      0.00237     -0.00493 *
 * Ti             37      0.00299      0.00149     -0.00216 *
 * Ti             38     -0.00977      0.00145     -0.00273 *
 * Ti             39      0.00413      0.00121     -0.00236 *
 * Ti             40      0.00241      0.00130     -0.00231 *
 * Ti             41     -0.00559      0.00126     -0.00235 *
 * Ti             42      0.00361      0.00232     -0.00217 *
 * Ti             43      0.00235     -0.00297     -0.00165 *
 * Ti             44     -0.00865     -0.00315     -0.00201 *
 * Ti             45      0.00382     -0.00398     -0.00204 *
 * Ti             46      0.00840      0.00648     -0.00443 *
 * Ti             47     -0.00498      0.00110      0.00153 *
 * Ti             48      0.01047     -0.00475      0.00723 *
 * Ti             49      0.00247      0.00249      0.00131 *
 * Ti             50     -0.00889      0.00163      0.00140 *
 * Ti             51      0.00416      0.00258      0.00122 *
 * Ti             52      0.00803     -0.00906     -0.00419 *
 * Ti             53     -0.00528     -0.00310      0.00098 *
 * Ti             54      0.01062      0.00215      0.00678 *
 *                                                          *
 ************************************************************

 ******************** Constrained Forces ********************
 *                                                          *
 *               Cartesian components (eV/A)                *
 * -------------------------------------------------------- *
 *                         x            y            z      *
 *                                                          *
 * Ti              1     -0.02505     -0.00086      0.00162 *
 * Ti              2     -0.00954     -0.00106      0.00129 *
 * Ti              3     -0.00915     -0.00122      0.00155 *
 * Ti              4      0.00131      0.00150      0.00117 *
 * Ti              5     -0.00091      0.00543      0.00088 *
 * Ti              6     -0.00054     -0.00123      0.00138 *
 * Ti              7      0.00130     -0.00039      0.00121 *
 * Ti              8     -0.00120     -0.00424      0.00118 *
 * Ti              9     -0.00066      0.00321      0.00113 *
 * Ti             10      0.00283     -0.00069     -0.00133 *
 * Ti             11     -0.00295     -0.00063      0.00241 *
 * Ti             12     -0.00033     -0.00137     -0.00669 *
 * Ti             13      0.00668      0.00140     -0.00019 *
 * Ti             14     -0.00400      0.00141     -0.00012 *
 * Ti             15     -0.00226      0.00242     -0.00179 *
 * Ti             16      0.00623     -0.00074     -0.00082 *
 * Ti             17     -0.00410     -0.00098     -0.00107 *
 * Ti             18     -0.00232     -0.00064     -0.00180 *
 * Ti             19      0.00207     -0.00040     -0.00044 *
 * Ti             20     -0.00225     -0.00057     -0.00393 *
 * Ti             21     -0.00059     -0.00154      0.00477 *
 * Ti             22      0.00715      0.00194     -0.00072 *
 * Ti             23     -0.00441      0.00219     -0.00056 *
 * Ti             24     -0.00271      0.00297      0.00074 *
 * Ti             25      0.00647     -0.00147     -0.00041 *
 * Ti             26     -0.00387     -0.00159     -0.00009 *
 * Ti             27     -0.00257     -0.00129      0.00036 *
 * Ti             28      0.00906      0.00716      0.00670 *
 * Ti             29     -0.00568      0.00165      0.00130 *
 * Ti             30      0.01013     -0.00442     -0.00478 *
 * Ti             31      0.00326      0.00181      0.00096 *
 * Ti             32     -0.00903      0.00116      0.00107 *
 * Ti             33      0.00382      0.00227      0.00107 *
 * Ti             34      0.00828     -0.00894      0.00592 *
 * Ti             35     -0.00485     -0.00309      0.00093 *
 * Ti             36      0.01005      0.00237     -0.00493 *
 * Ti             37      0.00299      0.00149     -0.00216 *
 * Ti             38     -0.00977      0.00145     -0.00273 *
 * Ti             39      0.00413      0.00121     -0.00236 *
 * Ti             40      0.00241      0.00130     -0.00231 *
 * Ti             41     -0.00559      0.00126     -0.00235 *
 * Ti             42      0.00361      0.00232     -0.00217 *
 * Ti             43      0.00235     -0.00297     -0.00165 *
 * Ti             44     -0.00865     -0.00315     -0.00201 *
 * Ti             45      0.00382     -0.00398     -0.00204 *
 * Ti             46      0.00840      0.00648     -0.00443 *
 * Ti             47     -0.00498      0.00110      0.00153 *
 * Ti             48      0.01047     -0.00475      0.00723 *
 * Ti             49      0.00247      0.00249      0.00131 *
 * Ti             50     -0.00889      0.00163      0.00140 *
 * Ti             51      0.00416      0.00258      0.00122 *
 * Ti             52      0.00803     -0.00906     -0.00419 *
 * Ti             53     -0.00528     -0.00310      0.00098 *
 * Ti             54      0.01062      0.00215      0.00678 *
 *                                                          *
 ************************************************************

 ***************** Stress Tensor *****************
 *                                               *
 *          Cartesian components (GPa)           *
 * --------------------------------------------- *
 *             x             y             z     *
 *                                               *
 *  x     -0.107422     -0.000055      0.000001  *
 *  y     -0.000055     -0.106877      0.000275  *
 *  z      0.000001      0.000275     -0.105823  *
 *                                               *
 *  Pressure:    0.1067                          *
 *                                               *
 *************************************************

 Pseudo atomic calculation performed for Ti 3s2 3p6 3d2 4s2

 Converged in 31 iterations to a total energy of -1585.9719 eV

Charge spilling parameter for spin component 1 = 0.07%

     Atomic Populations (Mulliken)
     -----------------------------
Species          Ion     s      p      d      f     Total  Charge (e)
=====================================================================
  Ti              1     2.31   6.88   2.81   0.00  12.00    -0.00
  Ti              2     2.30   6.88   2.81   0.00  12.00     0.00
  Ti              3     2.31   6.88   2.82   0.00  12.00    -0.00
  Ti              4     2.31   6.88   2.81   0.00  12.00     0.00
  Ti              5     2.31   6.88   2.81   0.00  12.00     0.00
  Ti              6     2.31   6.88   2.82   0.00  12.00    -0.00
  Ti              7     2.31   6.88   2.81   0.00  12.00     0.00
  Ti              8     2.31   6.88   2.81   0.00  12.00     0.00
  Ti              9     2.31   6.88   2.81   0.00  12.00    -0.00
  Ti             10     2.31   6.88   2.81   0.00  12.00    -0.00
  Ti             11     2.31   6.88   2.81   0.00  12.00     0.00
  Ti             12     2.31   6.88   2.81   0.00  12.00    -0.00
  Ti             13     2.31   6.88   2.81   0.00  12.00     0.00
  Ti             14     2.31   6.88   2.81   0.00  12.00     0.00
  Ti             15     2.31   6.88   2.81   0.00  12.00    -0.00
  Ti             16     2.31   6.88   2.81   0.00  12.00     0.00
  Ti             17     2.31   6.88   2.81   0.00  12.00     0.00
  Ti             18     2.31   6.88   2.81   0.00  12.00     0.00
  Ti             19     2.31   6.88   2.81   0.00  12.00    -0.00
  Ti             20     2.31   6.88   2.81   0.00  12.00    -0.00
  Ti             21     2.31   6.88   2.82   0.00  12.00    -0.00
  Ti             22     2.31   6.88   2.81   0.00  12.00    -0.00
  Ti             23     2.31   6.88   2.81   0.00  12.00    -0.00
  Ti             24     2.31   6.88   2.82   0.00  12.00    -0.00
  Ti             25     2.31   6.88   2.81   0.00  12.00     0.00
  Ti             26     2.31   6.88   2.81   0.00  12.00     0.00
  Ti             27     2.31   6.88   2.81   0.00  12.00    -0.00
  Ti             28     2.30   6.88   2.81   0.00  12.00    -0.00
  Ti             29     2.31   6.88   2.81   0.00  12.00    -0.00
  Ti             30     2.31   6.88   2.81   0.00  12.00    -0.00
  Ti             31     2.31   6.88   2.81   0.00  12.00     0.00
  Ti             32     2.31   6.88   2.81   0.00  12.00     0.00
  Ti             33     2.31   6.88   2.81   0.00  12.00    -0.00
  Ti             34     2.30   6.88   2.81   0.00  12.00     0.00
  Ti             35     2.31   6.88   2.81   0.00  12.00     0.00
  Ti             36     2.31   6.88   2.81   0.00  12.00    -0.00
  Ti             37     2.31   6.88   2.81   0.00  12.00     0.00
  Ti             38     2.31   6.88   2.81   0.00  12.00    -0.00
  Ti             39     2.31   6.88   2.81   0.00  12.00    -0.00
  Ti             40     2.31   6.88   2.81   0.00  12.00     0.00
  Ti             41     2.31   6.88   2.81   0.00  12.00     0.00
  Ti             42     2.31   6.88   2.81   0.00  12.00    -0.00
  Ti             43     2.31   6.88   2.81   0.00  12.00    -0.00
  Ti             44     2.31   6.88   2.81   0.00  12.00    -0.00
  Ti             45     2.31   6.88   2.81   0.00  12.00    -0.00
  Ti             46     2.30   6.88   2.81   0.00  12.00    -0.00
  Ti             47     2.31   6.88   2.81   0.00  12.00    -0.00
  Ti             48     2.31   6.88   2.81   0.00  12.00    -0.00
  Ti             49     2.31   6.88   2.81   0.00  12.00     0.00
  Ti             50     2.31   6.88   2.81   0.00  12.00     0.00
  Ti             51     2.31   6.88   2.81   0.00  12.00    -0.00
  Ti             52     2.30   6.88   2.81   0.00  12.00    -0.00
  Ti             53     2.31   6.88   2.81   0.00  12.00     0.00
  Ti             54     2.31   6.88   2.81   0.00  12.00     0.00
=====================================================================

                 Bond                   Population      Length (A)
======================================================================
             Ti 1  -- Ti 28                  0.11        2.73584
             Ti 1  -- Ti 46                  0.11        2.73584
             Ti 1  -- Ti 34                  0.11        2.73584
             Ti 1  -- Ti 52                  0.11        2.73584
             Ti 27 -- Ti 54                  0.11        2.74160
             Ti 25 -- Ti 52                  0.11        2.74160
             Ti 21 -- Ti 48                  0.12        2.74160
             Ti 9  -- Ti 36                  0.11        2.74160
             Ti 26 -- Ti 53                  0.11        2.74160
             Ti 24 -- Ti 51                  0.11        2.74160
             Ti 18 -- Ti 45                  0.11        2.74160
             Ti 22 -- Ti 49                  0.11        2.74160
             Ti 20 -- Ti 47                  0.11        2.74160
             Ti 19 -- Ti 46                  0.11        2.74160
             Ti 16 -- Ti 43                  0.11        2.74160
             Ti 12 -- Ti 39                  0.11        2.74160
             Ti 8  -- Ti 35                  0.11        2.74160
             Ti 7  -- Ti 34                  0.11        2.74160
             Ti 6  -- Ti 33                  0.11        2.74160
             Ti 3  -- Ti 30                  0.12        2.74160
             Ti 25 -- Ti 54                  0.11        2.74160
             Ti 23 -- Ti 50                  0.11        2.74160
             Ti 21 -- Ti 54                  0.12        2.74160
             Ti 17 -- Ti 44                  0.11        2.74160
             Ti 15 -- Ti 42                  0.11        2.74160
             Ti 10 -- Ti 37                  0.11        2.74160
             Ti 9  -- Ti 54                  0.11        2.74160
             Ti 4  -- Ti 31                  0.11        2.74160
             Ti 2  -- Ti 29                  0.11        2.74160
             Ti 19 -- Ti 52                  0.11        2.74160
             Ti 19 -- Ti 48                  0.12        2.74160
             Ti 13 -- Ti 40                  0.11        2.74160
             Ti 11 -- Ti 38                  0.11        2.74160
             Ti 7  -- Ti 52                  0.11        2.74160
             Ti 7  -- Ti 36                  0.12        2.74160
             Ti 5  -- Ti 32                  0.11        2.74160
             Ti 3  -- Ti 48                  0.12        2.74160
             Ti 3  -- Ti 36                  0.12        2.74160
             Ti 22 -- Ti 51                  0.11        2.74160
             Ti 20 -- Ti 53                  0.11        2.74160
             Ti 16 -- Ti 45                  0.11        2.74160
             Ti 14 -- Ti 41                  0.11        2.74160
             Ti 12 -- Ti 45                  0.11        2.74160
             Ti 8  -- Ti 53                  0.11        2.74160
             Ti 6  -- Ti 51                  0.11        2.74160
             Ti 10 -- Ti 43                  0.11        2.74160
             Ti 10 -- Ti 39                  0.11        2.74160
             Ti 4  -- Ti 49                  0.11        2.74160
             Ti 4  -- Ti 33                  0.11        2.74160
             Ti 2  -- Ti 47                  0.11        2.74160
             Ti 2  -- Ti 35                  0.11        2.74160
             Ti 19 -- Ti 54                  0.12        2.74160
             Ti 13 -- Ti 42                  0.11        2.74160
             Ti 11 -- Ti 44                  0.11        2.74160
             Ti 7  -- Ti 54                  0.12        2.74160
             Ti 5  -- Ti 50                  0.11        2.74160
             Ti 3  -- Ti 54                  0.12        2.74160
             Ti 10 -- Ti 45                  0.11        2.74160
             Ti 4  -- Ti 51                  0.11        2.74160
             Ti 2  -- Ti 53                  0.11        2.74160
             Ti 27 -- Ti 53                  0.11        2.74160
             Ti 27 -- Ti 51                  0.11        2.74160
             Ti 27 -- Ti 45                  0.11        2.74160
             Ti 26 -- Ti 52                  0.11        2.74160
             Ti 24 -- Ti 48                  0.11        2.74160
             Ti 25 -- Ti 49                  0.11        2.74160
             Ti 25 -- Ti 43                  0.11        2.74160
             Ti 21 -- Ti 47                  0.11        2.74160
             Ti 21 -- Ti 39                  0.11        2.74160
             Ti 18 -- Ti 36                  0.11        2.74160
             Ti 9  -- Ti 35                  0.11        2.74160
             Ti 9  -- Ti 33                  0.11        2.74160
             Ti 26 -- Ti 50                  0.11        2.74160
             Ti 26 -- Ti 44                  0.11        2.74160
             Ti 24 -- Ti 50                  0.11        2.74160
             Ti 24 -- Ti 42                  0.11        2.74160
             Ti 22 -- Ti 46                  0.11        2.74160
             Ti 20 -- Ti 46                  0.11        2.74160
             Ti 19 -- Ti 37                  0.11        2.74160
             Ti 18 -- Ti 44                  0.11        2.74160
             Ti 18 -- Ti 42                  0.11        2.74160
             Ti 17 -- Ti 43                  0.11        2.74160
             Ti 17 -- Ti 35                  0.11        2.74160
             Ti 16 -- Ti 34                  0.11        2.74160
             Ti 15 -- Ti 39                  0.11        2.74160
             Ti 15 -- Ti 33                  0.11        2.74160
             Ti 12 -- Ti 30                  0.12        2.74160
             Ti 8  -- Ti 34                  0.11        2.74160
             Ti 7  -- Ti 31                  0.11        2.74160
             Ti 6  -- Ti 30                  0.12        2.74160
             Ti 3  -- Ti 29                  0.11        2.74160
             Ti 25 -- Ti 51                  0.11        2.74160
             Ti 23 -- Ti 49                  0.11        2.74160
             Ti 23 -- Ti 47                  0.11        2.74160
             Ti 22 -- Ti 40                  0.11        2.74160
             Ti 21 -- Ti 53                  0.11        2.74160
             Ti 20 -- Ti 38                  0.11        2.74160
             Ti 16 -- Ti 40                  0.11        2.74160
             Ti 12 -- Ti 38                  0.11        2.74160
             Ti 10 -- Ti 28                  0.11        2.74160
             Ti 8  -- Ti 32                  0.11        2.74160
             Ti 6  -- Ti 32                  0.11        2.74160
             Ti 4  -- Ti 28                  0.11        2.74160
             Ti 2  -- Ti 28                  0.11        2.74160
             Ti 25 -- Ti 45                  0.11        2.74160
             Ti 23 -- Ti 41                  0.11        2.74160
             Ti 22 -- Ti 48                  0.11        2.74160
             Ti 21 -- Ti 45                  0.11        2.74160
             Ti 20 -- Ti 52                  0.11        2.74160
             Ti 17 -- Ti 41                  0.11        2.74160
             Ti 15 -- Ti 41                  0.11        2.74160
             Ti 13 -- Ti 37                  0.11        2.74160
             Ti 13 -- Ti 31                  0.11        2.74160
             Ti 11 -- Ti 37                  0.11        2.74160
             Ti 11 -- Ti 29                  0.11        2.74160
             Ti 9  -- Ti 53                  0.11        2.74160
             Ti 9  -- Ti 51                  0.11        2.74160
             Ti 8  -- Ti 52                  0.11        2.74160
             Ti 6  -- Ti 48                  0.12        2.74160
             Ti 5  -- Ti 31                  0.11        2.74160
             Ti 5  -- Ti 29                  0.11        2.74160
             Ti 22 -- Ti 42                  0.11        2.74160
             Ti 20 -- Ti 44                  0.11        2.74160
             Ti 19 -- Ti 43                  0.11        2.74160
             Ti 19 -- Ti 39                  0.11        2.74160
             Ti 16 -- Ti 42                  0.11        2.74160
             Ti 16 -- Ti 36                  0.11        2.74160
             Ti 14 -- Ti 40                  0.11        2.74160
             Ti 14 -- Ti 38                  0.11        2.74160
             Ti 14 -- Ti 32                  0.11        2.74160
             Ti 12 -- Ti 44                  0.11        2.74160
             Ti 12 -- Ti 36                  0.11        2.74160
             Ti 10 -- Ti 34                  0.11        2.74160
             Ti 10 -- Ti 30                  0.12        2.74160
             Ti 8  -- Ti 50                  0.11        2.74160
             Ti 7  -- Ti 49                  0.11        2.74160
             Ti 7  -- Ti 33                  0.11        2.74160
             Ti 6  -- Ti 50                  0.11        2.74160
             Ti 4  -- Ti 46                  0.11        2.74160
             Ti 4  -- Ti 30                  0.12        2.74160
             Ti 3  -- Ti 47                  0.11        2.74160
             Ti 3  -- Ti 35                  0.11        2.74160
             Ti 2  -- Ti 46                  0.11        2.74160
             Ti 2  -- Ti 34                  0.11        2.74160
             Ti 13 -- Ti 39                  0.11        2.74160
             Ti 13 -- Ti 33                  0.11        2.74160
             Ti 11 -- Ti 43                  0.11        2.74160
             Ti 11 -- Ti 35                  0.11        2.74160
             Ti 5  -- Ti 49                  0.11        2.74160
             Ti 5  -- Ti 47                  0.11        2.74160
             Ti 19 -- Ti 45                  0.11        2.74160
             Ti 7  -- Ti 51                  0.11        2.74160
             Ti 3  -- Ti 53                  0.11        2.74160
             Ti 10 -- Ti 36                  0.12        2.74160
             Ti 4  -- Ti 48                  0.12        2.74160
             Ti 2  -- Ti 52                  0.11        2.74160
             Ti 27 -- Ti 50                  0.11        2.74160
             Ti 27 -- Ti 44                  0.11        2.74160
             Ti 27 -- Ti 42                  0.11        2.74160
             Ti 26 -- Ti 49                  0.11        2.74160
             Ti 26 -- Ti 43                  0.11        2.74160
             Ti 25 -- Ti 40                  0.11        2.74160
             Ti 24 -- Ti 47                  0.11        2.74160
             Ti 24 -- Ti 39                  0.11        2.74160
             Ti 23 -- Ti 46                  0.11        2.74160
             Ti 21 -- Ti 38                  0.11        2.74160
             Ti 18 -- Ti 35                  0.11        2.74160
             Ti 18 -- Ti 33                  0.11        2.74160
             Ti 17 -- Ti 34                  0.11        2.74160
             Ti 15 -- Ti 30                  0.11        2.74160
             Ti 9  -- Ti 32                  0.11        2.74160
             Ti 26 -- Ti 41                  0.11        2.74160
             Ti 24 -- Ti 41                  0.11        2.74160
             Ti 22 -- Ti 37                  0.11        2.74160
             Ti 20 -- Ti 37                  0.11        2.74160
             Ti 18 -- Ti 41                  0.11        2.74160
             Ti 16 -- Ti 31                  0.11        2.74160
             Ti 12 -- Ti 29                  0.11        2.74160
             Ti 8  -- Ti 31                  0.11        2.74160
             Ti 6  -- Ti 29                  0.11        2.74160
             Ti 5  -- Ti 28                  0.11        2.74160
             Ti 23 -- Ti 40                  0.11        2.74160
             Ti 23 -- Ti 38                  0.11        2.74160
             Ti 17 -- Ti 40                  0.11        2.74160
             Ti 17 -- Ti 32                  0.11        2.74160
             Ti 15 -- Ti 38                  0.11        2.74160
             Ti 15 -- Ti 32                  0.11        2.74160
             Ti 14 -- Ti 37                  0.11        2.74160
             Ti 13 -- Ti 28                  0.11        2.74160
             Ti 11 -- Ti 28                  0.11        2.74160
             Ti 25 -- Ti 42                  0.11        2.74160
             Ti 22 -- Ti 39                  0.11        2.74160
             Ti 21 -- Ti 44                  0.11        2.74160
             Ti 20 -- Ti 43                  0.11        2.74160
             Ti 16 -- Ti 33                  0.11        2.74160
             Ti 14 -- Ti 31                  0.11        2.74160
             Ti 14 -- Ti 29                  0.11        2.74160
             Ti 12 -- Ti 35                  0.11        2.74160
             Ti 9  -- Ti 50                  0.11        2.74160
             Ti 8  -- Ti 49                  0.11        2.74160
             Ti 6  -- Ti 47                  0.11        2.74160
             Ti 13 -- Ti 30                  0.11        2.74160
             Ti 11 -- Ti 34                  0.11        2.74160
             Ti 5  -- Ti 46                  0.11        2.74160
             Ti 27 -- Ti 41                  0.11        2.74160
             Ti 26 -- Ti 40                  0.11        2.74160
             Ti 24 -- Ti 38                  0.11        2.74160
             Ti 18 -- Ti 32                  0.11        2.74160
             Ti 23 -- Ti 37                  0.11        2.74160
             Ti 17 -- Ti 31                  0.11        2.74160
             Ti 15 -- Ti 29                  0.11        2.74160
             Ti 14 -- Ti 28                  0.11        2.74160
             Ti 1  -- Ti 30                  0.11        2.74739
             Ti 1  -- Ti 48                  0.11        2.74739
             Ti 1  -- Ti 36                  0.11        2.74739
             Ti 1  -- Ti 54                  0.11        2.74739
======================================================================

 
 A BibTeX formatted list of references used in this run has been written to 
 castep.bib
 
Initialisation time =     10.29 s
Calculation time    =   1724.92 s
Finalisation time   =      0.11 s
Total time          =   1735.32 s
Peak Memory Use     = 1475488 kB
  
Overall parallel efficiency rating: Very good (84%)                             
  
Data was distributed by:-
G-vector (3-way); efficiency rating: Very good (85%)                            
k-point (14-way); efficiency rating: Excellent (98%)                            
