 +-------------------------------------------------+
 |                                                 |
 |      CCC   AA    SSS  TTTTT  EEEEE  PPPP        |
 |     C     A  A  S       T    E      P   P       |
 |     C     AAAA   SS     T    EEE    PPPP        |
 |     C     A  A     S    T    E      P           |
 |      CCC  A  A  SSS     T    EEEEE  P           |
 |                                                 |
 +-------------------------------------------------+
 |                                                 |
 | Welcome to Academic Release CASTEP version 17.21|          
 | Ab Initio Total Energy Program                  |
 |                                                 |
 | Authors:                                        |
 | M. Segall, M. Probert, C. Pickard, P. Hasnip,   |
 | S. Clark, K. Refson, J. R. Yates, M. Payne      |
 |                                                 |
 | Contributors:                                   |
 | P. Lindan, P. Haynes, J. White, V. Milman,      |
 | N. Govind, M. Gibson, P. Tulip, V. Cocula,      |
 | B. Montanari, D. Quigley, M. Glover,            |
 | L. Bernasconi, A. Perlov, M. Plummer,           |
 | E. McNellis, J. Meyer, J. Gale, D. Jochym       |
 | J. Aarons, B. Walker, R. Gillen, D. Jones       |
 | T. Green, I. J. Bush, C. J. Armstrong,          |
 | E. J. Higgins, E. L. Brown, M. S. McFly,        |
 | J. Wilkins, B-C. Shih, P. J. P. Byrne           |
 |                                                 |
 | Copyright (c) 2000 - 2017                       |
 |                                                 |
 |     Distributed under the terms of an           |
 |     Agreement between the United Kingdom        |
 |     Car-Parrinello (UKCP) Consortium,           |
 |     Daresbury Laboratory and Accelrys, Inc.     |
 |                                                 |
 | Please cite                                     |
 |                                                 |
 |     "First principles methods using CASTEP"     |
 |                                                 |
 |         Zeitschrift fuer Kristallographie       |
 |           220(5-6) pp. 567-570 (2005)           |
 |                                                 |
 | S. J. Clark, M. D. Segall, C. J. Pickard,       |
 | P. J. Hasnip, M. J. Probert, K. Refson,         |
 | M. C. Payne                                     |
 |                                                 |
 |       in all publications arising from          |
 |              your use of CASTEP                 |
 |                                                 |
 +-------------------------------------------------+


 Compiled for linux_x86_64_gfortran6.0-XT on Fri, 21 Jul 2017 10:20:05 +0100
 from code version 056e886bd5a1+ Castep172_branch Mon, 15 May 2017 14:45:35 +0100
 Compiler: GNU Fortran 6.3.0; Optimisation: fast
 MATHLIBS: Intel MKL(2017.0.0) (LAPACK version 3.6.0)
 FFT Lib : fftw3 version commercial-fftw-3.3.4-sse2-avx
 Fundamental constants values: CODATA 2010

 Run started: Thu, 31 Oct 2019 13:09:58 +0000

 Atomic calculation performed for Al: 1s2 2s2 2p6 3s2 3p1

 Converged in 55 iterations to an ae energy of -6578.725 eV

   ============================================================                
   | Pseudopotential Report - Date of generation 31-10-2019   |                
   ------------------------------------------------------------                
   | Element: Al Ionic charge:  3.00 Level of theory: LDA     |                
   | Atomic Solver: Koelling-Harmon                           |                
   |                                                          |                
   |               Reference Electronic Structure             |                
   |         Orbital         Occupation         Energy        |                
   |            3s              2.000           -0.288        |                
   |            3p              1.000           -0.102        |                
   |                                                          |                
   |                 Pseudopotential Definition               |                
   |        Beta     l      e      Rc     scheme   norm       |                
   |          1      0   -0.288   2.192     qc      0         |                
   |          2      0    0.250   2.192     qc      0         |                
   |          3      1   -0.102   2.192     qc      0         |                
   |          4      1    0.250   2.192     qc      0         |                
   |          5      2    0.000   2.000     qc      0         |                
   |          6      2    0.250   2.000     qc      0         |                
   |         loc     3    0.000   2.192     pn      0         |                
   |                                                          |                
   | Augmentation charge Rinner = 1.398                       |                
   | Partial core correction Rc = 1.398                       |                
   ------------------------------------------------------------                
   | "3|2.2|2.2|1.4|4|5|5|30:31:32U2U2"                       |                
   ------------------------------------------------------------                
   |      Author: Chris J. Pickard, Cambridge University      |                
   ============================================================                

 Atomic calculation performed for Ti: 1s2 2s2 2p6 3s2 3p6 3d2 4s2

 Converged in 78 iterations to an ae energy of -23176.516 eV

   ============================================================                
   | Pseudopotential Report - Date of generation 31-10-2019   |                
   ------------------------------------------------------------                
   | Element: Ti Ionic charge: 12.00 Level of theory: LDA     |                
   | Atomic Solver: Koelling-Harmon                           |                
   |                                                          |                
   |               Reference Electronic Structure             |                
   |         Orbital         Occupation         Energy        |                
   |            3s              2.000           -2.288        |                
   |            3p              6.000           -1.425        |                
   |            4s              2.000           -0.169        |                
   |            3d              2.000           -0.164        |                
   |                                                          |                
   |                 Pseudopotential Definition               |                
   |        Beta     l      e      Rc     scheme   norm       |                
   |          1      0   -2.288   1.793     qc      0         |                
   |          2      0   -0.169   1.793     qc      0         |                
   |          3      0    0.250   1.793     qc      0         |                
   |          4      1   -1.425   1.793     qc      0         |                
   |          5      1    0.250   1.793     qc      0         |                
   |          6      2   -0.164   1.793     qc      0         |                
   |          7      2    0.250   1.793     qc      0         |                
   |         loc     3    0.000   1.793     pn      0         |                
   |                                                          |                
   | Augmentation charge Rinner = 1.263                       |                
   | Partial core correction Rc = 1.263                       |                
   ------------------------------------------------------------                
   | "3|1.8|9|10|11|30U:40:31:32(qc=5.5)"                     |                
   ------------------------------------------------------------                
   |      Author: Chris J. Pickard, Cambridge University      |                
   ============================================================                

 Pseudo atomic calculation performed for Al 3s2 3p1

 Converged in 15 iterations to a total energy of -105.5952 eV


 Pseudo atomic calculation performed for Ti 3s2 3p6 3d2 4s2

 Converged in 31 iterations to a total energy of -1585.9998 eV

 Calculation parallelised over 48 processes.
 Data is distributed by G-vector(2-way) and k-point(24-way)

 ************************************ Title ************************************
 

 ***************************** General Parameters ******************************
  
 output verbosity                               : normal  (1)
 write checkpoint data to                       : castep.check
 type of calculation                            : single point energy
 stress calculation                             : on
 density difference calculation                 : off
 electron localisation func (ELF) calculation   : off
 Hirshfeld analysis                             : off
 unlimited duration calculation
 timing information                             : on
 memory usage estimate                          : on
 write final potential to formatted file        : off
 write final density to formatted file          : off
 write BibTeX reference list                    : on
 write OTFG pseudopotential files               : on
 write electrostatic potential file             : on
 write bands file                               : on
 checkpoint writing                             : off
  
 output         length unit                     : A
 output           mass unit                     : amu
 output           time unit                     : ps
 output         charge unit                     : e
 output           spin unit                     : hbar/2
 output         energy unit                     : eV
 output          force unit                     : eV/A
 output       velocity unit                     : A/ps
 output       pressure unit                     : GPa
 output     inv_length unit                     : 1/A
 output      frequency unit                     : cm-1
 output force constant unit                     : eV/A**2
 output         volume unit                     : A**3
 output   IR intensity unit                     : (D/A)**2/amu
 output         dipole unit                     : D
 output         efield unit                     : eV/A/e
 output        entropy unit                     : J/mol/K
  
 wavefunctions paging                           : none
 random number generator seed                   : randomised (130959117)
 data distribution                              : optimal for this architecture
 optimization strategy                          : balance speed and memory

 *********************** Exchange-Correlation Parameters ***********************
  
 using functional                               : Local Density Approximation
 relativistic treatment                         : Koelling-Harmon
 DFT+D: Semi-empirical dispersion correction    : off

 ************************* Pseudopotential Parameters **************************
  
 pseudopotential representation                 : reciprocal space
 <beta|phi> representation                      : reciprocal space
 spin-orbit coupling                            : off

 **************************** Basis Set Parameters *****************************
  
 plane wave basis set cut-off                   :   600.0000   eV
 size of standard grid                          :     1.7500
 size of   fine   gmax                          :    21.9610   1/A
 finite basis set correction                    : automatic
 number of sample energies                      :          3
           sample  spacing                      :     5.0000   eV

 **************************** Electronic Parameters ****************************
  
 number of  electrons                           :  405.0    
 net charge of system                           :  0.000    
 net spin   of system                           :  1.000    
 number of  up  spins                           :  203.0    
 number of down spins                           :  202.0    
 treating system as spin-polarized
 number of bands                                :        244

 ********************* Electronic Minimization Parameters **********************
  
 Method: Treating system as metallic with density mixing treatment of electrons,
         and number of  SD  steps               :          1
         and number of  CG  steps               :          4
  
 total energy / atom convergence tol.           : 0.1000E-04   eV
 eigen-energy convergence tolerance             : 0.1000E-05   eV
 max force / atom convergence tol.              : ignored
 convergence tolerance window                   :          3   cycles
 max. number of SCF cycles                      :        250
 number of fixed-spin iterations                :         10
 smearing scheme                                : Gaussian
 smearing width                                 : 0.1000       eV
 Fermi energy convergence tolerance             : 0.2721E-13   eV
 periodic dipole correction                     : NONE

 ************************** Density Mixing Parameters **************************
  
 density-mixing scheme                          : Pulay
 max. length of mixing history                  :         20
 charge density mixing amplitude                : 0.8000    
   spin density mixing amplitude                :  2.000    
 cut-off energy for mixing                      :  600.0       eV

 *********************** Population Analysis Parameters ************************
  
 Population analysis with cutoff                :  3.000       A

 *******************************************************************************
  

                           -------------------------------
                                      Unit Cell
                           -------------------------------
        Real Lattice(A)                      Reciprocal Lattice(1/A)
   8.2901050   0.0000000   0.0000000        0.7579138   0.0000000   0.0000000
   0.0000000   8.2901050   0.0000000        0.0000000   0.7579138   0.0000000
   0.0000000   0.0000000  11.9532130        0.0000000   0.0000000   0.5256482

                       Lattice parameters(A)       Cell Angles
                    a =    8.290105          alpha =   90.000000
                    b =    8.290105          beta  =   90.000000
                    c =   11.953213          gamma =   90.000000

                       Current cell volume =  821.494615       A**3
                                   density =    2.460041   AMU/A**3
                                           =    4.084994     g/cm^3

                           -------------------------------
                                     Cell Contents
                           -------------------------------
                         Total number of ions in cell =   54
                      Total number of species in cell =    2
                        Max number of any one species =   27

            xxxxxxxxxxxxxxxxxxxxxxxxxxxxxxxxxxxxxxxxxxxxxxxxxxxxxxxxxxxx
            x  Element    Atom        Fractional coordinates of atoms  x
            x            Number           u          v          w      x
            x----------------------------------------------------------x
            x  Al           1         0.000000   0.000000   0.000000   x 
            x  Al           2         0.333333   0.000000   0.000000   x 
            x  Al           3         0.666667   0.000000   0.000000   x 
            x  Al           4         0.000000   0.333333   0.000000   x 
            x  Al           5         0.333333   0.333333   0.000000   x 
            x  Al           6         0.666667   0.333333   0.000000   x 
            x  Al           7         0.000000   0.666667   0.000000   x 
            x  Al           8         0.333333   0.666667   0.000000   x 
            x  Al           9         0.666667   0.666667   0.000000   x 
            x  Al          10         0.000000   0.000000   0.333333   x 
            x  Al          11         0.333333   0.000000   0.333333   x 
            x  Al          12         0.666667   0.000000   0.333333   x 
            x  Al          13         0.000000   0.333333   0.333333   x 
            x  Al          14         0.333333   0.333333   0.333333   x 
            x  Al          15         0.666667   0.333333   0.333333   x 
            x  Al          16         0.000000   0.666667   0.333333   x 
            x  Al          17         0.333333   0.666667   0.333333   x 
            x  Al          18         0.666667   0.666667   0.333333   x 
            x  Al          19         0.000000   0.000000   0.666667   x 
            x  Al          20         0.333333   0.000000   0.666667   x 
            x  Al          21         0.666667   0.000000   0.666667   x 
            x  Al          22         0.000000   0.333333   0.666667   x 
            x  Al          23         0.333333   0.333333   0.666667   x 
            x  Al          24         0.666667   0.333333   0.666667   x 
            x  Al          25         0.000000   0.666667   0.666667   x 
            x  Al          26         0.333333   0.666667   0.666667   x 
            x  Al          27         0.666667   0.666667   0.666667   x 
            x  Ti           1         0.167354   0.166667   0.167354   x 
            x  Ti           2         0.500000   0.166667   0.166667   x 
            x  Ti           3         0.833333   0.166667   0.166667   x 
            x  Ti           4         0.166667   0.500000   0.166667   x 
            x  Ti           5         0.500000   0.500000   0.166667   x 
            x  Ti           6         0.833333   0.500000   0.166667   x 
            x  Ti           7         0.166667   0.833333   0.166667   x 
            x  Ti           8         0.500000   0.833333   0.166667   x 
            x  Ti           9         0.833333   0.833333   0.166667   x 
            x  Ti          10         0.166667   0.166667   0.500000   x 
            x  Ti          11         0.500000   0.166667   0.500000   x 
            x  Ti          12         0.833333   0.166667   0.500000   x 
            x  Ti          13         0.166667   0.500000   0.500000   x 
            x  Ti          14         0.500000   0.500000   0.500000   x 
            x  Ti          15         0.833333   0.500000   0.500000   x 
            x  Ti          16         0.166667   0.833333   0.500000   x 
            x  Ti          17         0.500000   0.833333   0.500000   x 
            x  Ti          18         0.833333   0.833333   0.500000   x 
            x  Ti          19         0.166667   0.166667   0.833333   x 
            x  Ti          20         0.500000   0.166667   0.833333   x 
            x  Ti          21         0.833333   0.166667   0.833333   x 
            x  Ti          22         0.166667   0.500000   0.833333   x 
            x  Ti          23         0.500000   0.500000   0.833333   x 
            x  Ti          24         0.833333   0.500000   0.833333   x 
            x  Ti          25         0.166667   0.833333   0.833333   x 
            x  Ti          26         0.500000   0.833333   0.833333   x 
            x  Ti          27         0.833333   0.833333   0.833333   x 
            xxxxxxxxxxxxxxxxxxxxxxxxxxxxxxxxxxxxxxxxxxxxxxxxxxxxxxxxxxxx


                         No user defined ionic velocities

                           -------------------------------
                                   Details of Species
                           -------------------------------

                               Mass of species in AMU
                                    Al   26.9815400
                                    Ti   47.8670000

                          Electric Quadrupole Moment (Barn)
                                    Al    0.1466000 Isotope 27
                                    Ti    0.3020000 Isotope 47

                          Files used for pseudopotentials:
                                    Al 3|2.2|2.2|1.4|4|5|5|30:31:32U2U2
                                    Ti 3|1.8|9|10|11|30U:40:31:32(qc=5.5)

                           -------------------------------
                              k-Points For BZ Sampling
                           -------------------------------
                       MP grid size for SCF calculation is  4  4  3
                            with an offset of   0.000  0.000  0.000
                       Number of kpoints used =            24

                           -------------------------------
                               Symmetry and Constraints
                           -------------------------------

                      Maximum deviation from symmetry =  0.00000         ANG

                      Number of symmetry operations   =           1
                      Number of ionic constraints     =           3
                      Point group of crystal =     1: C1, 1, 1
                      Space group of crystal =     6: Pm, P -2y

             Set iprint > 1 for details on symmetry rotations/translations

                         Centre of mass is constrained
             Set iprint > 1 for details of linear ionic constraints

                         Number of cell constraints= 0
                         Cell constraints are:  1 2 3 4 5 6

                         External pressure/stress (GPa)
                          0.00000   0.00000   0.00000
                                    0.00000   0.00000
                                              0.00000
  
+---------------- MEMORY AND SCRATCH DISK ESTIMATES PER PROCESS --------------+
|                                                     Memory          Disk    |
| Baseline code, static data and system overhead      172.0 MB         0.0 MB |
| BLAS internal memory storage                          0.0 MB         0.0 MB |
| Model and support data                              407.1 MB       451.5 MB |
| Electronic energy minimisation requirements         415.3 MB         0.0 MB |
| Force calculation requirements                       36.6 MB         0.0 MB |
| Stress calculation requirements                      36.6 MB         0.0 MB |
|                                               ----------------------------- |
| Approx. total storage required per process          994.3 MB       451.5 MB |
|                                                                             |
| Requirements will fluctuate during execution and may exceed these estimates |
+-----------------------------------------------------------------------------+
Calculating finite basis set correction with  3 cut-off energies.
Calculating total energy with cut-off of  590.000 eV.
------------------------------------------------------------------------ <-- SCF
SCF loop      Energy           Fermi           Energy gain       Timer   <-- SCF
                               energy          per atom          (sec)   <-- SCF
------------------------------------------------------------------------ <-- SCF
Initial  -3.82170601E+004  0.00000000E+000                        34.45  <-- SCF
      1  -4.47031604E+004  1.00079727E+001   1.20112969E+002     226.58  <-- SCF
      2  -4.59449805E+004  8.11634756E+000   2.29966685E+001     361.95  <-- SCF
      3  -4.60178253E+004  7.76653719E+000   1.34897743E+000     515.33  <-- SCF
      4  -4.60165781E+004  7.44804597E+000  -2.30954019E-002     662.24  <-- SCF
      5  -4.60164880E+004  7.75216220E+000  -1.66877592E-003     848.68  <-- SCF
      6  -4.60162394E+004  7.61279019E+000  -4.60382844E-003    1039.19  <-- SCF
      7  -4.60159613E+004  7.59383045E+000  -5.15127745E-003    1187.29  <-- SCF
      8  -4.60159961E+004  7.59911277E+000   6.44604153E-004    1339.49  <-- SCF
      9  -4.60159556E+004  7.60108096E+000  -7.48424180E-004    1485.88  <-- SCF
     10  -4.60159577E+004  7.60105473E+000   3.83764711E-005    1620.66  <-- SCF
     11  -4.60159685E+004  7.60125140E+000   1.99623992E-004    1764.69  <-- SCF
     12  -4.60159589E+004  7.60117954E+000  -1.77516492E-004    1904.00  <-- SCF
     13  -4.60159605E+004  7.60094339E+000   2.91537058E-005    2033.66  <-- SCF
     14  -4.60159594E+004  7.60093047E+000  -1.96216483E-005    2155.49  <-- SCF
     15  -4.60159596E+004  7.60115664E+000   3.53991305E-006    2258.43  <-- SCF
     16  -4.60159595E+004  7.60116707E+000  -2.39791831E-006    2354.35  <-- SCF
------------------------------------------------------------------------ <-- SCF
 
Integrated Spin Density     =    0.697832E-02 hbar/2                        
Integrated |Spin Density|   =    0.168550E-01 hbar/2                        
 
Final energy, E             =  -46015.67360219     eV
Final free energy (E-TS)    =  -46015.95948888     eV
(energies not corrected for finite basis set)
 
NB est. 0K energy (E-0.5TS)      =  -46015.81654554     eV
 
Calculating total energy with cut-off of  595.000 eV.
------------------------------------------------------------------------ <-- SCF
SCF loop      Energy           Fermi           Energy gain       Timer   <-- SCF
                               energy          per atom          (sec)   <-- SCF
------------------------------------------------------------------------ <-- SCF
Initial  -4.60156736E+004  0.00000000E+000                      2390.30  <-- SCF
      1  -4.60159609E+004  7.60085257E+000   5.32064820E-003    2542.52  <-- SCF
      2  -4.60159609E+004  7.60085237E+000   4.23047822E-007    2639.31  <-- SCF
      3  -4.60159856E+004  7.60164948E+000   4.58254540E-004    2784.80  <-- SCF
      4  -4.60159597E+004  7.60130104E+000  -4.79962661E-004    2928.20  <-- SCF
      5  -4.60159599E+004  7.60120525E+000   4.09464674E-006    3052.26  <-- SCF
      6  -4.60159599E+004  7.60094189E+000  -3.97911827E-008    3149.80  <-- SCF
------------------------------------------------------------------------ <-- SCF
 
Integrated Spin Density     =    0.406524E-02 hbar/2                        
Integrated |Spin Density|   =    0.610513E-02 hbar/2                        
 
Final energy, E             =  -46015.67404973     eV
Final free energy (E-TS)    =  -46015.95993851     eV
(energies not corrected for finite basis set)
 
NB est. 0K energy (E-0.5TS)      =  -46015.81699412     eV
 
Calculating total energy with cut-off of  600.000 eV.
------------------------------------------------------------------------ <-- SCF
SCF loop      Energy           Fermi           Energy gain       Timer   <-- SCF
                               energy          per atom          (sec)   <-- SCF
------------------------------------------------------------------------ <-- SCF
Initial  -4.60156739E+004  0.00000000E+000                      3185.94  <-- SCF
      1  -4.60159651E+004  7.60125545E+000   5.39390537E-003    3346.94  <-- SCF
      2  -4.60159652E+004  7.60125492E+000   7.53714696E-007    3449.48  <-- SCF
      3  -4.60161037E+004  7.60335165E+000   2.56577488E-003    3596.27  <-- SCF
      4  -4.60159591E+004  7.60106397E+000  -2.67865678E-003    3743.55  <-- SCF
      5  -4.60159606E+004  7.60101719E+000   2.86020506E-005    3880.20  <-- SCF
      6  -4.60159603E+004  7.60106859E+000  -5.13169796E-006    3989.28  <-- SCF
      7  -4.60159603E+004  7.60106959E+000  -5.10093040E-007    4088.00  <-- SCF
------------------------------------------------------------------------ <-- SCF
 
Integrated Spin Density     =    0.598323E-03 hbar/2                        
Integrated |Spin Density|   =    0.938882E-03 hbar/2                        
 
Final energy, E             =  -46015.67445002     eV
Final free energy (E-TS)    =  -46015.96032153     eV
(energies not corrected for finite basis set)
 
NB est. 0K energy (E-0.5TS)      =  -46015.81738577     eV
 
 For future reference: finite basis dEtot/dlog(Ecut) =      -0.049614eV
 Total energy corrected for finite basis set =  -46015.960325 eV

 ******************* Unconstrained Forces *******************
 *                                                          *
 *               Cartesian components (eV/A)                *
 * -------------------------------------------------------- *
 *                         x            y            z      *
 *                                                          *
 * Al              1      0.00851      0.00799      0.01001 *
 * Al              2     -0.00224      0.00299      0.00254 *
 * Al              3      0.00057     -0.00020      0.00003 *
 * Al              4      0.00864     -0.00793      0.01011 *
 * Al              5     -0.00237     -0.00291      0.00249 *
 * Al              6      0.00057      0.00015      0.00002 *
 * Al              7     -0.00009     -0.00009      0.00036 *
 * Al              8      0.00030     -0.00008     -0.00020 *
 * Al              9     -0.00024      0.00004     -0.00047 *
 * Al             10     -0.00237     -0.00304      0.00233 *
 * Al             11      0.00899     -0.00819      0.01036 *
 * Al             12      0.00049      0.00020      0.00015 *
 * Al             13     -0.00219      0.00311      0.00196 *
 * Al             14      0.00884      0.00830      0.01025 *
 * Al             15      0.00049     -0.00033     -0.00029 *
 * Al             16      0.00037     -0.00006     -0.00030 *
 * Al             17     -0.00027     -0.00012      0.00015 *
 * Al             18     -0.00013      0.00009     -0.00015 *
 * Al             19      0.00008     -0.00004      0.00068 *
 * Al             20      0.00006      0.00013      0.00074 *
 * Al             21     -0.00022     -0.00013     -0.00066 *
 * Al             22      0.00024      0.00009      0.00109 *
 * Al             23     -0.00013     -0.00008      0.00087 *
 * Al             24     -0.00020      0.00000     -0.00016 *
 * Al             25     -0.00000     -0.00009     -0.00060 *
 * Al             26     -0.00003     -0.00007     -0.00035 *
 * Al             27      0.00022      0.00012      0.00147 *
 * Ti              1     -0.05330      0.00053     -0.06235 *
 * Ti              2      0.01292      0.00015      0.00438 *
 * Ti              3      0.01203     -0.00003      0.00404 *
 * Ti              4      0.00297      0.00011      0.00393 *
 * Ti              5     -0.00254      0.00080      0.00320 *
 * Ti              6     -0.00201     -0.00082      0.00332 *
 * Ti              7      0.00281     -0.00057      0.00425 *
 * Ti              8     -0.00198     -0.00098      0.00297 *
 * Ti              9     -0.00223      0.00099      0.00287 *
 * Ti             10      0.00029     -0.00027     -0.00988 *
 * Ti             11      0.00315      0.00057      0.00528 *
 * Ti             12     -0.00187      0.00132      0.00195 *
 * Ti             13     -0.00073      0.00242      0.00363 *
 * Ti             14     -0.00047     -0.00299     -0.00266 *
 * Ti             15      0.00122     -0.00130     -0.00074 *
 * Ti             16     -0.00004     -0.00222      0.00377 *
 * Ti             17     -0.00204      0.00246     -0.00251 *
 * Ti             18      0.00220     -0.00007     -0.00074 *
 * Ti             19     -0.00111      0.00008     -0.01197 *
 * Ti             20     -0.00125     -0.00024      0.00041 *
 * Ti             21      0.00388      0.00018      0.00391 *
 * Ti             22      0.00035     -0.00245      0.00216 *
 * Ti             23      0.00080      0.00134     -0.00241 *
 * Ti             24     -0.00106      0.00092     -0.00469 *
 * Ti             25      0.00077      0.00240      0.00182 *
 * Ti             26      0.00075     -0.00109     -0.00223 *
 * Ti             27     -0.00141     -0.00109     -0.00416 *
 *                                                          *
 ************************************************************

 ******************** Constrained Forces ********************
 *                                                          *
 *               Cartesian components (eV/A)                *
 * -------------------------------------------------------- *
 *                         x            y            z      *
 *                                                          *
 * Al              1      0.00851      0.00799      0.01001 *
 * Al              2     -0.00224      0.00299      0.00254 *
 * Al              3      0.00057     -0.00020      0.00003 *
 * Al              4      0.00864     -0.00793      0.01011 *
 * Al              5     -0.00237     -0.00291      0.00249 *
 * Al              6      0.00057      0.00015      0.00002 *
 * Al              7     -0.00009     -0.00009      0.00036 *
 * Al              8      0.00030     -0.00008     -0.00020 *
 * Al              9     -0.00024      0.00004     -0.00047 *
 * Al             10     -0.00237     -0.00304      0.00233 *
 * Al             11      0.00899     -0.00819      0.01036 *
 * Al             12      0.00049      0.00020      0.00015 *
 * Al             13     -0.00219      0.00311      0.00196 *
 * Al             14      0.00884      0.00830      0.01025 *
 * Al             15      0.00049     -0.00033     -0.00029 *
 * Al             16      0.00037     -0.00006     -0.00030 *
 * Al             17     -0.00027     -0.00012      0.00015 *
 * Al             18     -0.00013      0.00009     -0.00015 *
 * Al             19      0.00008     -0.00004      0.00068 *
 * Al             20      0.00006      0.00013      0.00074 *
 * Al             21     -0.00022     -0.00013     -0.00066 *
 * Al             22      0.00024      0.00009      0.00109 *
 * Al             23     -0.00013     -0.00008      0.00087 *
 * Al             24     -0.00020      0.00000     -0.00016 *
 * Al             25     -0.00000     -0.00009     -0.00060 *
 * Al             26     -0.00003     -0.00007     -0.00035 *
 * Al             27      0.00022      0.00012      0.00147 *
 * Ti              1     -0.05330      0.00053     -0.06235 *
 * Ti              2      0.01292      0.00015      0.00438 *
 * Ti              3      0.01203     -0.00003      0.00404 *
 * Ti              4      0.00297      0.00011      0.00393 *
 * Ti              5     -0.00254      0.00080      0.00320 *
 * Ti              6     -0.00201     -0.00082      0.00332 *
 * Ti              7      0.00281     -0.00057      0.00425 *
 * Ti              8     -0.00198     -0.00098      0.00297 *
 * Ti              9     -0.00223      0.00099      0.00287 *
 * Ti             10      0.00029     -0.00027     -0.00988 *
 * Ti             11      0.00315      0.00057      0.00528 *
 * Ti             12     -0.00187      0.00132      0.00195 *
 * Ti             13     -0.00073      0.00242      0.00363 *
 * Ti             14     -0.00047     -0.00299     -0.00266 *
 * Ti             15      0.00122     -0.00130     -0.00074 *
 * Ti             16     -0.00004     -0.00222      0.00377 *
 * Ti             17     -0.00204      0.00246     -0.00251 *
 * Ti             18      0.00220     -0.00007     -0.00074 *
 * Ti             19     -0.00111      0.00008     -0.01197 *
 * Ti             20     -0.00125     -0.00024      0.00041 *
 * Ti             21      0.00388      0.00018      0.00391 *
 * Ti             22      0.00035     -0.00245      0.00216 *
 * Ti             23      0.00080      0.00134     -0.00241 *
 * Ti             24     -0.00106      0.00092     -0.00469 *
 * Ti             25      0.00077      0.00240      0.00182 *
 * Ti             26      0.00075     -0.00109     -0.00223 *
 * Ti             27     -0.00141     -0.00109     -0.00416 *
 *                                                          *
 ************************************************************

 ***************** Stress Tensor *****************
 *                                               *
 *          Cartesian components (GPa)           *
 * --------------------------------------------- *
 *             x             y             z     *
 *                                               *
 *  x     -0.615088     -0.000031     -0.000171  *
 *  y     -0.000031     -0.615368     -0.000006  *
 *  z     -0.000171     -0.000006     -0.942293  *
 *                                               *
 *  Pressure:    0.7242                          *
 *                                               *
 *************************************************

 Pseudo atomic calculation performed for Al 3s2 3p1

 Converged in 15 iterations to a total energy of -105.5952 eV


 Pseudo atomic calculation performed for Ti 3s2 3p6 3d2 4s2

 Converged in 31 iterations to a total energy of -1585.9998 eV

Charge spilling parameter for spin component 1 = 0.26%
Charge spilling parameter for spin component 2 = 0.26%

     Atomic Populations (Mulliken)
     -----------------------------
Species          Ion     s      p      d      f     Total  Charge (e)  Spin (hbar/2)
==================================================================================
  Al              1     0.96   2.15   0.00   0.00   3.11    -0.11        0.00
  Al              2     0.96   2.15   0.00   0.00   3.11    -0.11        0.00
  Al              3     0.96   2.15   0.00   0.00   3.11    -0.11       -0.00
  Al              4     0.96   2.15   0.00   0.00   3.11    -0.11        0.00
  Al              5     0.96   2.15   0.00   0.00   3.11    -0.11        0.00
  Al              6     0.96   2.15   0.00   0.00   3.11    -0.11        0.00
  Al              7     0.96   2.15   0.00   0.00   3.11    -0.11        0.00
  Al              8     0.96   2.15   0.00   0.00   3.11    -0.11        0.00
  Al              9     0.96   2.15   0.00   0.00   3.11    -0.11        0.00
  Al             10     0.96   2.15   0.00   0.00   3.11    -0.11        0.00
  Al             11     0.96   2.15   0.00   0.00   3.11    -0.11        0.00
  Al             12     0.96   2.15   0.00   0.00   3.11    -0.11        0.00
  Al             13     0.96   2.15   0.00   0.00   3.11    -0.11        0.00
  Al             14     0.96   2.15   0.00   0.00   3.11    -0.11        0.00
  Al             15     0.96   2.15   0.00   0.00   3.11    -0.11        0.00
  Al             16     0.96   2.15   0.00   0.00   3.11    -0.11        0.00
  Al             17     0.96   2.15   0.00   0.00   3.11    -0.11        0.00
  Al             18     0.96   2.15   0.00   0.00   3.11    -0.11        0.00
  Al             19     0.96   2.15   0.00   0.00   3.11    -0.11        0.00
  Al             20     0.96   2.15   0.00   0.00   3.11    -0.11        0.00
  Al             21     0.96   2.15   0.00   0.00   3.11    -0.11       -0.00
  Al             22     0.96   2.15   0.00   0.00   3.11    -0.11        0.00
  Al             23     0.96   2.15   0.00   0.00   3.11    -0.11        0.00
  Al             24     0.96   2.15   0.00   0.00   3.11    -0.11        0.00
  Al             25     0.96   2.15   0.00   0.00   3.11    -0.11        0.00
  Al             26     0.96   2.15   0.00   0.00   3.11    -0.11        0.00
  Al             27     0.96   2.15   0.00   0.00   3.11    -0.11        0.00
  Ti              1     2.28   6.72   2.89   0.00  11.89     0.11        0.00
  Ti              2     2.28   6.72   2.89   0.00  11.89     0.11        0.00
  Ti              3     2.28   6.72   2.89   0.00  11.89     0.11        0.00
  Ti              4     2.28   6.72   2.89   0.00  11.89     0.11        0.00
  Ti              5     2.28   6.72   2.89   0.00  11.89     0.11        0.00
  Ti              6     2.28   6.72   2.89   0.00  11.89     0.11       -0.00
  Ti              7     2.28   6.72   2.89   0.00  11.89     0.11       -0.00
  Ti              8     2.28   6.72   2.89   0.00  11.89     0.11        0.00
  Ti              9     2.28   6.72   2.89   0.00  11.89     0.11        0.00
  Ti             10     2.28   6.72   2.89   0.00  11.89     0.11        0.00
  Ti             11     2.28   6.72   2.89   0.00  11.89     0.11       -0.00
  Ti             12     2.28   6.72   2.89   0.00  11.89     0.11        0.00
  Ti             13     2.28   6.72   2.89   0.00  11.89     0.11        0.00
  Ti             14     2.28   6.72   2.89   0.00  11.89     0.11        0.00
  Ti             15     2.28   6.72   2.89   0.00  11.89     0.11        0.00
  Ti             16     2.28   6.72   2.89   0.00  11.89     0.11        0.00
  Ti             17     2.28   6.72   2.89   0.00  11.89     0.11        0.00
  Ti             18     2.28   6.72   2.89   0.00  11.89     0.11        0.00
  Ti             19     2.28   6.72   2.89   0.00  11.89     0.11        0.00
  Ti             20     2.28   6.72   2.89   0.00  11.89     0.11        0.00
  Ti             21     2.28   6.72   2.89   0.00  11.89     0.11        0.00
  Ti             22     2.28   6.72   2.89   0.00  11.89     0.11        0.00
  Ti             23     2.28   6.72   2.89   0.00  11.89     0.11        0.00
  Ti             24     2.28   6.72   2.89   0.00  11.89     0.11        0.00
  Ti             25     2.28   6.72   2.89   0.00  11.89     0.11       -0.00
  Ti             26     2.28   6.72   2.89   0.00  11.89     0.11        0.00
  Ti             27     2.28   6.72   2.89   0.00  11.89     0.11       -0.00
==================================================================================

                 Bond                   Population        Spin       Length (A)
================================================================================
             Ti 1  -- Ti 2                   0.13         0.00          2.75768
             Ti 25 -- Ti 27                  0.14         0.00          2.76337
             Ti 22 -- Ti 24                  0.14         0.00          2.76337
             Ti 21 -- Ti 27                  0.14         0.00          2.76337
             Ti 20 -- Ti 26                  0.14         0.00          2.76337
             Ti 19 -- Ti 25                  0.14         0.00          2.76337
             Ti 19 -- Ti 21                  0.14         0.00          2.76337
             Ti 16 -- Ti 18                  0.14         0.00          2.76337
             Ti 13 -- Ti 15                  0.14         0.00          2.76337
             Ti 12 -- Ti 18                  0.14         0.00          2.76337
             Ti 11 -- Ti 17                  0.14         0.00          2.76337
             Ti 10 -- Ti 16                  0.13         0.00          2.76337
             Ti 10 -- Ti 12                  0.13         0.00          2.76337
             Ti 7  -- Ti 9                   0.14         0.00          2.76337
             Ti 4  -- Ti 6                   0.14         0.00          2.76337
             Ti 3  -- Ti 9                   0.14         0.00          2.76337
             Ti 2  -- Ti 8                   0.14         0.00          2.76337
             Al 25 -- Al 26                  0.38        -0.00          2.76337
             Al 22 -- Al 23                  0.38        -0.00          2.76337
             Al 21 -- Al 24                  0.38        -0.00          2.76337
             Al 20 -- Al 23                  0.38        -0.00          2.76337
             Al 19 -- Al 22                  0.38        -0.00          2.76337
             Al 19 -- Al 20                  0.38        -0.00          2.76337
             Al 16 -- Al 17                  0.38        -0.00          2.76337
             Al 13 -- Al 14                  0.37        -0.00          2.76337
             Al 12 -- Al 15                  0.38        -0.00          2.76337
             Al 11 -- Al 14                  0.37        -0.00          2.76337
             Al 10 -- Al 13                  0.38        -0.00          2.76337
             Al 10 -- Al 11                  0.37        -0.00          2.76337
             Al 7  -- Al 8                   0.38        -0.00          2.76337
             Al 4  -- Al 5                   0.38        -0.00          2.76337
             Al 3  -- Al 6                   0.38        -0.00          2.76337
             Al 2  -- Al 5                   0.38        -0.00          2.76337
             Al 1  -- Al 4                   0.38        -0.00          2.76337
             Al 1  -- Al 2                   0.38        -0.00          2.76337
             Al 25 -- Al 27                  0.38        -0.00          2.76337
             Al 22 -- Al 24                  0.38        -0.00          2.76337
             Al 21 -- Al 27                  0.38        -0.00          2.76337
             Al 20 -- Al 26                  0.38        -0.00          2.76337
             Al 19 -- Al 25                  0.38        -0.00          2.76337
             Al 19 -- Al 21                  0.38         0.00          2.76337
             Al 16 -- Al 18                  0.38        -0.00          2.76337
             Al 13 -- Al 15                  0.38        -0.00          2.76337
             Al 12 -- Al 18                  0.38         0.00          2.76337
             Al 11 -- Al 17                  0.38        -0.00          2.76337
             Al 10 -- Al 16                  0.38         0.00          2.76337
             Al 10 -- Al 12                  0.38         0.00          2.76337
             Al 7  -- Al 9                   0.38        -0.00          2.76337
             Al 4  -- Al 6                   0.38         0.00          2.76337
             Al 3  -- Al 9                   0.38        -0.00          2.76337
             Al 2  -- Al 8                   0.38        -0.00          2.76337
             Al 1  -- Al 7                   0.38        -0.00          2.76337
             Al 1  -- Al 3                   0.38        -0.00          2.76337
             Ti 26 -- Ti 27                  0.14         0.00          2.76337
             Ti 24 -- Ti 27                  0.14         0.00          2.76337
             Ti 23 -- Ti 26                  0.14         0.00          2.76337
             Ti 23 -- Ti 24                  0.14         0.00          2.76337
             Ti 22 -- Ti 25                  0.14         0.00          2.76337
             Ti 20 -- Ti 21                  0.14         0.00          2.76337
             Ti 17 -- Ti 18                  0.14         0.00          2.76337
             Ti 15 -- Ti 18                  0.14         0.00          2.76337
             Ti 14 -- Ti 17                  0.14         0.00          2.76337
             Ti 14 -- Ti 15                  0.13         0.00          2.76337
             Ti 13 -- Ti 16                  0.14         0.00          2.76337
             Ti 11 -- Ti 12                  0.14         0.00          2.76337
             Ti 8  -- Ti 9                   0.14         0.00          2.76337
             Ti 6  -- Ti 9                   0.14         0.00          2.76337
             Ti 5  -- Ti 8                   0.13         0.00          2.76337
             Ti 5  -- Ti 6                   0.14         0.00          2.76337
             Ti 4  -- Ti 7                   0.14         0.00          2.76337
             Ti 2  -- Ti 3                   0.14         0.00          2.76337
             Ti 25 -- Ti 26                  0.14         0.00          2.76337
             Ti 22 -- Ti 23                  0.14         0.00          2.76337
             Ti 21 -- Ti 24                  0.14         0.00          2.76337
             Ti 20 -- Ti 23                  0.14         0.00          2.76337
             Ti 19 -- Ti 22                  0.14         0.00          2.76337
             Ti 19 -- Ti 20                  0.14         0.00          2.76337
             Ti 16 -- Ti 17                  0.14         0.00          2.76337
             Ti 13 -- Ti 14                  0.14         0.00          2.76337
             Ti 12 -- Ti 15                  0.14         0.00          2.76337
             Ti 11 -- Ti 14                  0.14         0.00          2.76337
             Ti 10 -- Ti 13                  0.13         0.00          2.76337
             Ti 10 -- Ti 11                  0.13         0.00          2.76337
             Ti 7  -- Ti 8                   0.14         0.00          2.76337
             Ti 4  -- Ti 5                   0.14         0.00          2.76337
             Ti 3  -- Ti 6                   0.14         0.00          2.76337
             Ti 2  -- Ti 5                   0.14         0.00          2.76337
             Al 26 -- Al 27                  0.38        -0.00          2.76337
             Al 24 -- Al 27                  0.38        -0.00          2.76337
             Al 23 -- Al 26                  0.38        -0.00          2.76337
             Al 23 -- Al 24                  0.38        -0.00          2.76337
             Al 22 -- Al 25                  0.38        -0.00          2.76337
             Al 20 -- Al 21                  0.38        -0.00          2.76337
             Al 17 -- Al 18                  0.38        -0.00          2.76337
             Al 15 -- Al 18                  0.38        -0.00          2.76337
             Al 14 -- Al 17                  0.38        -0.00          2.76337
             Al 14 -- Al 15                  0.38        -0.00          2.76337
             Al 13 -- Al 16                  0.38        -0.00          2.76337
             Al 11 -- Al 12                  0.38        -0.00          2.76337
             Al 8  -- Al 9                   0.38        -0.00          2.76337
             Al 6  -- Al 9                   0.38        -0.00          2.76337
             Al 5  -- Al 8                   0.38        -0.00          2.76337
             Al 5  -- Al 6                   0.38        -0.00          2.76337
             Al 4  -- Al 7                   0.38        -0.00          2.76337
             Al 2  -- Al 3                   0.38        -0.00          2.76337
             Ti 1  -- Ti 7                   0.14         0.00          2.76339
             Ti 1  -- Ti 4                   0.14         0.00          2.76339
             Ti 1  -- Ti 3                   0.14         0.00          2.76908
             Al 14 -- Ti 1                   0.16        -0.00          2.78183
             Al 11 -- Ti 1                   0.16         0.00          2.78183
             Al 13 -- Ti 1                   0.16        -0.00          2.78749
             Al 10 -- Ti 1                   0.16        -0.00          2.78749
             Al 19 -- Ti 27                  0.16        -0.00          2.79051
             Al 19 -- Ti 18                  0.16        -0.00          2.79051
             Al 26 -- Ti 25                  0.16         0.00          2.79051
             Al 26 -- Ti 22                  0.16        -0.00          2.79051
             Al 26 -- Ti 16                  0.16         0.00          2.79051
             Al 26 -- Ti 13                  0.16        -0.00          2.79051
             Al 25 -- Ti 27                  0.16         0.00          2.79051
             Al 25 -- Ti 25                  0.16        -0.00          2.79051
             Al 25 -- Ti 24                  0.16        -0.00          2.79051
             Al 25 -- Ti 22                  0.16         0.00          2.79051
             Al 25 -- Ti 18                  0.16         0.00          2.79051
             Al 25 -- Ti 16                  0.16        -0.00          2.79051
             Al 25 -- Ti 15                  0.16        -0.00          2.79051
             Al 25 -- Ti 13                  0.16        -0.00          2.79051
             Al 24 -- Ti 21                  0.16         0.00          2.79051
             Al 24 -- Ti 20                  0.16        -0.00          2.79051
             Al 24 -- Ti 12                  0.16        -0.00          2.79051
             Al 24 -- Ti 11                  0.16        -0.00          2.79051
             Al 23 -- Ti 19                  0.16        -0.00          2.79051
             Al 23 -- Ti 10                  0.16        -0.00          2.79051
             Al 22 -- Ti 21                  0.16        -0.00          2.79051
             Al 22 -- Ti 19                  0.16         0.00          2.79051
             Al 22 -- Ti 12                  0.16        -0.00          2.79051
             Al 22 -- Ti 10                  0.16        -0.00          2.79051
             Al 21 -- Ti 27                  0.16         0.00          2.79051
             Al 21 -- Ti 26                  0.16        -0.00          2.79051
             Al 21 -- Ti 21                  0.16        -0.00          2.79051
             Al 21 -- Ti 20                  0.16         0.00          2.79051
             Al 21 -- Ti 18                  0.16        -0.00          2.79051
             Al 21 -- Ti 17                  0.16        -0.00          2.79051
             Al 21 -- Ti 12                  0.16        -0.00          2.79051
             Al 21 -- Ti 11                  0.16         0.00          2.79051
             Al 20 -- Ti 25                  0.16        -0.00          2.79051
             Al 20 -- Ti 19                  0.16         0.00          2.79051
             Al 20 -- Ti 16                  0.16        -0.00          2.79051
             Al 20 -- Ti 10                  0.16         0.00          2.79051
             Al 19 -- Ti 25                  0.16         0.00          2.79051
             Al 19 -- Ti 21                  0.16         0.00          2.79051
             Al 19 -- Ti 19                  0.16        -0.00          2.79051
             Al 19 -- Ti 16                  0.16        -0.00          2.79051
             Al 19 -- Ti 12                  0.16         0.00          2.79051
             Al 19 -- Ti 10                  0.16        -0.00          2.79051
             Al 16 -- Ti 9                   0.16         0.00          2.79051
             Al 16 -- Ti 6                   0.16        -0.00          2.79051
             Al 13 -- Ti 12                  0.16        -0.00          2.79051
             Al 13 -- Ti 3                   0.16        -0.00          2.79051
             Al 12 -- Ti 9                   0.16        -0.00          2.79051
             Al 12 -- Ti 8                   0.16        -0.00          2.79051
             Al 11 -- Ti 16                  0.16        -0.00          2.79051
             Al 11 -- Ti 7                   0.16        -0.00          2.79051
             Al 10 -- Ti 18                  0.16        -0.00          2.79051
             Al 10 -- Ti 16                  0.16         0.00          2.79051
             Al 10 -- Ti 12                  0.16         0.00          2.79051
             Al 10 -- Ti 9                   0.16        -0.00          2.79051
             Al 10 -- Ti 7                   0.16        -0.00          2.79051
             Al 10 -- Ti 3                   0.16         0.00          2.79051
             Al 7  -- Ti 9                   0.16         0.00          2.79051
             Al 7  -- Ti 6                   0.16        -0.00          2.79051
             Al 4  -- Ti 3                   0.16        -0.00          2.79051
             Al 3  -- Ti 9                   0.16         0.00          2.79051
             Al 3  -- Ti 8                   0.16         0.00          2.79051
             Al 2  -- Ti 7                   0.16        -0.00          2.79051
             Al 1  -- Ti 9                   0.16         0.00          2.79051
             Al 1  -- Ti 7                   0.16         0.00          2.79051
             Al 1  -- Ti 3                   0.16         0.00          2.79051
             Al 27 -- Ti 27                  0.16        -0.00          2.79051
             Al 27 -- Ti 26                  0.16         0.00          2.79051
             Al 27 -- Ti 24                  0.16         0.00          2.79051
             Al 27 -- Ti 23                  0.16        -0.00          2.79051
             Al 27 -- Ti 18                  0.16        -0.00          2.79051
             Al 27 -- Ti 17                  0.16         0.00          2.79051
             Al 27 -- Ti 15                  0.16        -0.00          2.79051
             Al 27 -- Ti 14                  0.16        -0.00          2.79051
             Al 18 -- Ti 9                   0.16        -0.00          2.79051
             Al 18 -- Ti 8                   0.16         0.00          2.79051
             Al 18 -- Ti 6                   0.16        -0.00          2.79051
             Al 18 -- Ti 5                   0.16        -0.00          2.79051
             Al 17 -- Ti 16                  0.16         0.00          2.79051
             Al 17 -- Ti 13                  0.16        -0.00          2.79051
             Al 17 -- Ti 7                   0.16         0.00          2.79051
             Al 17 -- Ti 4                   0.16        -0.00          2.79051
             Al 16 -- Ti 18                  0.16         0.00          2.79051
             Al 16 -- Ti 16                  0.16        -0.00          2.79051
             Al 16 -- Ti 15                  0.16        -0.00          2.79051
             Al 16 -- Ti 13                  0.16         0.00          2.79051
             Al 16 -- Ti 7                   0.16        -0.00          2.79051
             Al 16 -- Ti 4                   0.16        -0.00          2.79051
             Al 15 -- Ti 12                  0.16         0.00          2.79051
             Al 15 -- Ti 11                  0.16        -0.00          2.79051
             Al 15 -- Ti 3                   0.16        -0.00          2.79051
             Al 15 -- Ti 2                   0.16        -0.00          2.79051
             Al 14 -- Ti 10                  0.16        -0.00          2.79051
             Al 13 -- Ti 10                  0.16         0.00          2.79051
             Al 12 -- Ti 18                  0.16         0.00          2.79051
             Al 12 -- Ti 17                  0.16        -0.00          2.79051
             Al 12 -- Ti 12                  0.16        -0.00          2.79051
             Al 12 -- Ti 11                  0.16         0.00          2.79051
             Al 12 -- Ti 3                   0.16        -0.00          2.79051
             Al 12 -- Ti 2                   0.16         0.00          2.79051
             Al 11 -- Ti 10                  0.16         0.00          2.79051
             Al 10 -- Ti 10                  0.16        -0.00          2.79051
             Al 9  -- Ti 9                   0.16        -0.00          2.79051
             Al 9  -- Ti 8                   0.16         0.00          2.79051
             Al 9  -- Ti 6                   0.16         0.00          2.79051
             Al 9  -- Ti 5                   0.16        -0.00          2.79051
             Al 8  -- Ti 7                   0.16         0.00          2.79051
             Al 8  -- Ti 4                   0.16        -0.00          2.79051
             Al 7  -- Ti 7                   0.16        -0.00          2.79051
             Al 7  -- Ti 4                   0.16         0.00          2.79051
             Al 6  -- Ti 3                   0.16         0.00          2.79051
             Al 6  -- Ti 2                   0.16        -0.00          2.79051
             Al 3  -- Ti 3                   0.16        -0.00          2.79051
             Al 3  -- Ti 2                   0.16         0.00          2.79051
             Al 18 -- Ti 18                  0.16        -0.00          2.79051
             Al 18 -- Ti 17                  0.16         0.00          2.79051
             Al 18 -- Ti 15                  0.16         0.00          2.79051
             Al 18 -- Ti 14                  0.16        -0.00          2.79051
             Al 26 -- Ti 26                  0.16        -0.00          2.79051
             Al 26 -- Ti 23                  0.16         0.00          2.79051
             Al 26 -- Ti 17                  0.16        -0.00          2.79051
             Al 26 -- Ti 14                  0.16        -0.00          2.79051
             Al 24 -- Ti 24                  0.16        -0.00          2.79051
             Al 24 -- Ti 23                  0.16         0.00          2.79051
             Al 24 -- Ti 15                  0.16        -0.00          2.79051
             Al 24 -- Ti 14                  0.16         0.00          2.79051
             Al 23 -- Ti 22                  0.16         0.00          2.79051
             Al 23 -- Ti 20                  0.16         0.00          2.79051
             Al 23 -- Ti 13                  0.16         0.00          2.79051
             Al 23 -- Ti 11                  0.16        -0.00          2.79051
             Al 22 -- Ti 24                  0.16         0.00          2.79051
             Al 22 -- Ti 22                  0.16        -0.00          2.79051
             Al 22 -- Ti 15                  0.16         0.00          2.79051
             Al 22 -- Ti 13                  0.16        -0.00          2.79051
             Al 20 -- Ti 26                  0.16         0.00          2.79051
             Al 20 -- Ti 20                  0.16        -0.00          2.79051
             Al 20 -- Ti 17                  0.16        -0.00          2.79051
             Al 20 -- Ti 11                  0.16        -0.00          2.79051
             Al 14 -- Ti 4                   0.16         0.00          2.79051
             Al 14 -- Ti 2                   0.16        -0.00          2.79051
             Al 13 -- Ti 15                  0.16         0.00          2.79051
             Al 13 -- Ti 6                   0.16         0.00          2.79051
             Al 13 -- Ti 4                   0.16        -0.00          2.79051
             Al 11 -- Ti 17                  0.16         0.00          2.79051
             Al 11 -- Ti 8                   0.16        -0.00          2.79051
             Al 11 -- Ti 2                   0.16        -0.00          2.79051
             Al 5  -- Ti 4                   0.16         0.00          2.79051
             Al 5  -- Ti 2                   0.16         0.00          2.79051
             Al 4  -- Ti 6                   0.16         0.00          2.79051
             Al 4  -- Ti 4                   0.16        -0.00          2.79051
             Al 2  -- Ti 8                   0.16         0.00          2.79051
             Al 2  -- Ti 2                   0.16        -0.00          2.79051
             Al 17 -- Ti 8                   0.16        -0.00          2.79051
             Al 17 -- Ti 5                   0.16        -0.00          2.79051
             Al 15 -- Ti 6                   0.16        -0.00          2.79051
             Al 15 -- Ti 5                   0.16         0.00          2.79051
             Al 14 -- Ti 13                  0.16         0.00          2.79051
             Al 14 -- Ti 11                  0.16         0.00          2.79051
             Al 13 -- Ti 13                  0.16        -0.00          2.79051
             Al 11 -- Ti 11                  0.16        -0.00          2.79051
             Al 8  -- Ti 8                   0.16        -0.00          2.79051
             Al 8  -- Ti 5                   0.16         0.00          2.79051
             Al 6  -- Ti 6                   0.16        -0.00          2.79051
             Al 6  -- Ti 5                   0.16         0.00          2.79051
             Al 17 -- Ti 17                  0.16        -0.00          2.79051
             Al 17 -- Ti 14                  0.16         0.00          2.79051
             Al 15 -- Ti 15                  0.16        -0.00          2.79051
             Al 15 -- Ti 14                  0.16         0.00          2.79051
             Al 5  -- Ti 19                  0.16        -0.00          2.79052
             Al 4  -- Ti 21                  0.16        -0.00          2.79052
             Al 4  -- Ti 19                  0.16        -0.00          2.79052
             Al 2  -- Ti 25                  0.16        -0.00          2.79052
             Al 2  -- Ti 19                  0.16         0.00          2.79052
             Al 1  -- Ti 27                  0.16        -0.00          2.79052
             Al 1  -- Ti 25                  0.16        -0.00          2.79052
             Al 1  -- Ti 21                  0.16         0.00          2.79052
             Al 1  -- Ti 19                  0.16        -0.00          2.79052
             Al 9  -- Ti 27                  0.16        -0.00          2.79052
             Al 9  -- Ti 26                  0.16         0.00          2.79052
             Al 9  -- Ti 24                  0.16        -0.00          2.79052
             Al 9  -- Ti 23                  0.16        -0.00          2.79052
             Al 8  -- Ti 25                  0.16         0.00          2.79052
             Al 8  -- Ti 22                  0.16        -0.00          2.79052
             Al 7  -- Ti 27                  0.16         0.00          2.79052
             Al 7  -- Ti 25                  0.16        -0.00          2.79052
             Al 7  -- Ti 24                  0.16         0.00          2.79052
             Al 7  -- Ti 22                  0.16        -0.00          2.79052
             Al 6  -- Ti 21                  0.16        -0.00          2.79052
             Al 6  -- Ti 20                  0.16        -0.00          2.79052
             Al 3  -- Ti 27                  0.16        -0.00          2.79052
             Al 3  -- Ti 26                  0.16        -0.00          2.79052
             Al 3  -- Ti 21                  0.16        -0.00          2.79052
             Al 3  -- Ti 20                  0.16         0.00          2.79052
             Al 23 -- Ti 23                  0.16        -0.00          2.79052
             Al 23 -- Ti 14                  0.16        -0.00          2.79052
             Al 14 -- Ti 14                  0.16        -0.00          2.79052
             Al 14 -- Ti 5                   0.16        -0.00          2.79052
             Al 5  -- Ti 5                   0.16        -0.00          2.79052
             Al 5  -- Ti 22                  0.16         0.00          2.79052
             Al 5  -- Ti 20                  0.16        -0.00          2.79052
             Al 4  -- Ti 24                  0.16         0.00          2.79052
             Al 4  -- Ti 22                  0.16        -0.00          2.79052
             Al 2  -- Ti 26                  0.16        -0.00          2.79052
             Al 2  -- Ti 20                  0.16        -0.00          2.79052
             Al 8  -- Ti 26                  0.16        -0.00          2.79052
             Al 8  -- Ti 23                  0.16        -0.00          2.79052
             Al 6  -- Ti 24                  0.16        -0.00          2.79052
             Al 6  -- Ti 23                  0.16         0.00          2.79052
             Al 5  -- Ti 23                  0.16        -0.00          2.79052
             Al 5  -- Ti 1                   0.16        -0.00          2.79358
             Al 2  -- Ti 1                   0.16         0.00          2.79358
             Al 4  -- Ti 1                   0.16         0.00          2.79921
             Al 1  -- Ti 1                   0.16        -0.00          2.79921
================================================================================

 
 A BibTeX formatted list of references used in this run has been written to 
 castep.bib
 
Initialisation time =     17.46 s
Calculation time    =   4970.58 s
Finalisation time   =      0.35 s
Total time          =   4988.39 s
Peak Memory Use     = 2047756 kB
  
Overall parallel efficiency rating: Very good (85%)                             
  
Data was distributed by:-
G-vector (2-way); efficiency rating: Very good (85%)                            
k-point (24-way); efficiency rating: Excellent (99%)                            
 +-------------------------------------------------+
 |                                                 |
 |      CCC   AA    SSS  TTTTT  EEEEE  PPPP        |
 |     C     A  A  S       T    E      P   P       |
 |     C     AAAA   SS     T    EEE    PPPP        |
 |     C     A  A     S    T    E      P           |
 |      CCC  A  A  SSS     T    EEEEE  P           |
 |                                                 |
 +-------------------------------------------------+
 |                                                 |
 | Welcome to Academic Release CASTEP version 17.21|          
 | Ab Initio Total Energy Program                  |
 |                                                 |
 | Authors:                                        |
 | M. Segall, M. Probert, C. Pickard, P. Hasnip,   |
 | S. Clark, K. Refson, J. R. Yates, M. Payne      |
 |                                                 |
 | Contributors:                                   |
 | P. Lindan, P. Haynes, J. White, V. Milman,      |
 | N. Govind, M. Gibson, P. Tulip, V. Cocula,      |
 | B. Montanari, D. Quigley, M. Glover,            |
 | L. Bernasconi, A. Perlov, M. Plummer,           |
 | E. McNellis, J. Meyer, J. Gale, D. Jochym       |
 | J. Aarons, B. Walker, R. Gillen, D. Jones       |
 | T. Green, I. J. Bush, C. J. Armstrong,          |
 | E. J. Higgins, E. L. Brown, M. S. McFly,        |
 | J. Wilkins, B-C. Shih, P. J. P. Byrne           |
 |                                                 |
 | Copyright (c) 2000 - 2017                       |
 |                                                 |
 |     Distributed under the terms of an           |
 |     Agreement between the United Kingdom        |
 |     Car-Parrinello (UKCP) Consortium,           |
 |     Daresbury Laboratory and Accelrys, Inc.     |
 |                                                 |
 | Please cite                                     |
 |                                                 |
 |     "First principles methods using CASTEP"     |
 |                                                 |
 |         Zeitschrift fuer Kristallographie       |
 |           220(5-6) pp. 567-570 (2005)           |
 |                                                 |
 | S. J. Clark, M. D. Segall, C. J. Pickard,       |
 | P. J. Hasnip, M. J. Probert, K. Refson,         |
 | M. C. Payne                                     |
 |                                                 |
 |       in all publications arising from          |
 |              your use of CASTEP                 |
 |                                                 |
 +-------------------------------------------------+


 Compiled for linux_x86_64_gfortran6.0-XT on Fri, 21 Jul 2017 10:20:05 +0100
 from code version 056e886bd5a1+ Castep172_branch Mon, 15 May 2017 14:45:35 +0100
 Compiler: GNU Fortran 6.3.0; Optimisation: fast
 MATHLIBS: Intel MKL(2017.0.0) (LAPACK version 3.6.0)
 FFT Lib : fftw3 version commercial-fftw-3.3.4-sse2-avx
 Fundamental constants values: CODATA 2010

 Run started: Thu, 31 Oct 2019 14:33:16 +0000

 Atomic calculation performed for Al: 1s2 2s2 2p6 3s2 3p1

 Converged in 55 iterations to an ae energy of -6578.725 eV

   ============================================================                
   | Pseudopotential Report - Date of generation 31-10-2019   |                
   ------------------------------------------------------------                
   | Element: Al Ionic charge:  3.00 Level of theory: LDA     |                
   | Atomic Solver: Koelling-Harmon                           |                
   |                                                          |                
   |               Reference Electronic Structure             |                
   |         Orbital         Occupation         Energy        |                
   |            3s              2.000           -0.288        |                
   |            3p              1.000           -0.102        |                
   |                                                          |                
   |                 Pseudopotential Definition               |                
   |        Beta     l      e      Rc     scheme   norm       |                
   |          1      0   -0.288   2.192     qc      0         |                
   |          2      0    0.250   2.192     qc      0         |                
   |          3      1   -0.102   2.192     qc      0         |                
   |          4      1    0.250   2.192     qc      0         |                
   |          5      2    0.000   2.000     qc      0         |                
   |          6      2    0.250   2.000     qc      0         |                
   |         loc     3    0.000   2.192     pn      0         |                
   |                                                          |                
   | Augmentation charge Rinner = 1.398                       |                
   | Partial core correction Rc = 1.398                       |                
   ------------------------------------------------------------                
   | "3|2.2|2.2|1.4|4|5|5|30:31:32U2U2"                       |                
   ------------------------------------------------------------                
   |      Author: Chris J. Pickard, Cambridge University      |                
   ============================================================                

 Atomic calculation performed for Ti: 1s2 2s2 2p6 3s2 3p6 3d2 4s2

 Converged in 78 iterations to an ae energy of -23176.516 eV

   ============================================================                
   | Pseudopotential Report - Date of generation 31-10-2019   |                
   ------------------------------------------------------------                
   | Element: Ti Ionic charge: 12.00 Level of theory: LDA     |                
   | Atomic Solver: Koelling-Harmon                           |                
   |                                                          |                
   |               Reference Electronic Structure             |                
   |         Orbital         Occupation         Energy        |                
   |            3s              2.000           -2.288        |                
   |            3p              6.000           -1.425        |                
   |            4s              2.000           -0.169        |                
   |            3d              2.000           -0.164        |                
   |                                                          |                
   |                 Pseudopotential Definition               |                
   |        Beta     l      e      Rc     scheme   norm       |                
   |          1      0   -2.288   1.793     qc      0         |                
   |          2      0   -0.169   1.793     qc      0         |                
   |          3      0    0.250   1.793     qc      0         |                
   |          4      1   -1.425   1.793     qc      0         |                
   |          5      1    0.250   1.793     qc      0         |                
   |          6      2   -0.164   1.793     qc      0         |                
   |          7      2    0.250   1.793     qc      0         |                
   |         loc     3    0.000   1.793     pn      0         |                
   |                                                          |                
   | Augmentation charge Rinner = 1.263                       |                
   | Partial core correction Rc = 1.263                       |                
   ------------------------------------------------------------                
   | "3|1.8|9|10|11|30U:40:31:32(qc=5.5)"                     |                
   ------------------------------------------------------------                
   |      Author: Chris J. Pickard, Cambridge University      |                
   ============================================================                

 Pseudo atomic calculation performed for Al 3s2 3p1

 Converged in 15 iterations to a total energy of -105.5952 eV


 Pseudo atomic calculation performed for Ti 3s2 3p6 3d2 4s2

 Converged in 31 iterations to a total energy of -1585.9998 eV

 Calculation parallelised over 48 processes.
 Data is distributed by G-vector(2-way) and k-point(24-way)

 ************************************ Title ************************************
 

 ***************************** General Parameters ******************************
  
 output verbosity                               : normal  (1)
 write checkpoint data to                       : castep.check
 type of calculation                            : single point energy
 stress calculation                             : on
 density difference calculation                 : off
 electron localisation func (ELF) calculation   : off
 Hirshfeld analysis                             : off
 unlimited duration calculation
 timing information                             : on
 memory usage estimate                          : on
 write final potential to formatted file        : off
 write final density to formatted file          : off
 write BibTeX reference list                    : on
 write OTFG pseudopotential files               : on
 write electrostatic potential file             : on
 write bands file                               : on
 checkpoint writing                             : off
  
 output         length unit                     : A
 output           mass unit                     : amu
 output           time unit                     : ps
 output         charge unit                     : e
 output           spin unit                     : hbar/2
 output         energy unit                     : eV
 output          force unit                     : eV/A
 output       velocity unit                     : A/ps
 output       pressure unit                     : GPa
 output     inv_length unit                     : 1/A
 output      frequency unit                     : cm-1
 output force constant unit                     : eV/A**2
 output         volume unit                     : A**3
 output   IR intensity unit                     : (D/A)**2/amu
 output         dipole unit                     : D
 output         efield unit                     : eV/A/e
 output        entropy unit                     : J/mol/K
  
 wavefunctions paging                           : none
 random number generator seed                   : randomised (143317057)
 data distribution                              : optimal for this architecture
 optimization strategy                          : maximize speed(+++)

 *********************** Exchange-Correlation Parameters ***********************
  
 using functional                               : Local Density Approximation
 relativistic treatment                         : Koelling-Harmon
 DFT+D: Semi-empirical dispersion correction    : off

 ************************* Pseudopotential Parameters **************************
  
 pseudopotential representation                 : reciprocal space
 <beta|phi> representation                      : reciprocal space
 spin-orbit coupling                            : off

 **************************** Basis Set Parameters *****************************
  
 plane wave basis set cut-off                   :   600.0000   eV
 size of standard grid                          :     1.7500
 size of   fine   gmax                          :    21.9610   1/A
 finite basis set correction                    : automatic
 number of sample energies                      :          3
           sample  spacing                      :     5.0000   eV

 **************************** Electronic Parameters ****************************
  
 number of  electrons                           :  405.0    
 net charge of system                           :  0.000    
 net spin   of system                           :  1.000    
 number of  up  spins                           :  203.0    
[...]
             Ti 4  -- Ti 5                   0.14        -0.00          2.76337
             Ti 3  -- Ti 6                   0.14         0.00          2.76337
             Ti 2  -- Ti 5                   0.14         0.00          2.76337
             Ti 1  -- Ti 4                   0.14         0.00          2.76337
             Ti 1  -- Ti 2                   0.14        -0.00          2.76337
             Al 26 -- Al 27                  0.38        -0.00          2.76337
             Al 24 -- Al 27                  0.38        -0.00          2.76337
             Al 23 -- Al 26                  0.38        -0.00          2.76337
             Al 23 -- Al 24                  0.38         0.00          2.76337
             Al 22 -- Al 25                  0.38        -0.00          2.76337
             Al 20 -- Al 21                  0.38         0.00          2.76337
             Al 17 -- Al 18                  0.38        -0.00          2.76337
             Al 15 -- Al 18                  0.38        -0.00          2.76337
             Al 14 -- Al 17                  0.38        -0.00          2.76337
             Al 14 -- Al 15                  0.38         0.00          2.76337
             Al 13 -- Al 16                  0.38        -0.00          2.76337
             Al 11 -- Al 12                  0.38         0.00          2.76337
             Al 8  -- Al 9                   0.38        -0.00          2.76337
             Al 6  -- Al 9                   0.38        -0.00          2.76337
             Al 5  -- Al 8                   0.38        -0.00          2.76337
             Al 5  -- Al 6                   0.38         0.00          2.76337
             Al 4  -- Al 7                   0.38        -0.00          2.76337
             Al 2  -- Al 3                   0.38         0.00          2.76337
             Al 1  -- Al 4                   0.38        -0.00          2.76339
             Al 1  -- Al 7                   0.38         0.00          2.76339
             Al 1  -- Al 3                   0.37        -0.00          2.76908
             Al 1  -- Ti 7                   0.16        -0.00          2.78183
             Al 1  -- Ti 1                   0.16        -0.00          2.78183
             Al 1  -- Ti 9                   0.16         0.00          2.78749
             Al 1  -- Ti 3                   0.16        -0.00          2.78749
             Al 19 -- Ti 27                  0.16        -0.00          2.79051
             Al 19 -- Ti 18                  0.16         0.00          2.79051
             Al 26 -- Ti 25                  0.16        -0.00          2.79051
             Al 26 -- Ti 22                  0.16         0.00          2.79051
             Al 26 -- Ti 16                  0.16         0.00          2.79051
             Al 26 -- Ti 13                  0.16         0.00          2.79051
             Al 25 -- Ti 27                  0.16         0.00          2.79051
             Al 25 -- Ti 25                  0.16        -0.00          2.79051
             Al 25 -- Ti 24                  0.16         0.00          2.79051
             Al 25 -- Ti 22                  0.16        -0.00          2.79051
             Al 25 -- Ti 18                  0.16        -0.00          2.79051
             Al 25 -- Ti 16                  0.16         0.00          2.79051
             Al 25 -- Ti 15                  0.16        -0.00          2.79051
             Al 25 -- Ti 13                  0.16         0.00          2.79051
             Al 24 -- Ti 21                  0.16        -0.00          2.79051
             Al 24 -- Ti 20                  0.16        -0.00          2.79051
             Al 24 -- Ti 12                  0.16         0.00          2.79051
             Al 24 -- Ti 11                  0.16        -0.00          2.79051
             Al 23 -- Ti 19                  0.16         0.00          2.79051
             Al 23 -- Ti 10                  0.16        -0.00          2.79051
             Al 22 -- Ti 21                  0.16         0.00          2.79051
             Al 22 -- Ti 19                  0.16        -0.00          2.79051
             Al 22 -- Ti 12                  0.16         0.00          2.79051
             Al 22 -- Ti 10                  0.16         0.00          2.79051
             Al 21 -- Ti 27                  0.16        -0.00          2.79051
             Al 21 -- Ti 26                  0.16         0.00          2.79051
             Al 21 -- Ti 21                  0.16        -0.00          2.79051
             Al 21 -- Ti 20                  0.16        -0.00          2.79051
             Al 21 -- Ti 18                  0.16         0.00          2.79051
             Al 21 -- Ti 17                  0.16        -0.00          2.79051
             Al 21 -- Ti 12                  0.16        -0.00          2.79051
             Al 21 -- Ti 11                  0.16        -0.00          2.79051
             Al 20 -- Ti 25                  0.16        -0.00          2.79051
             Al 20 -- Ti 19                  0.16        -0.00          2.79051
             Al 20 -- Ti 16                  0.16        -0.00          2.79051
             Al 20 -- Ti 10                  0.16         0.00          2.79051
             Al 19 -- Ti 25                  0.16        -0.00          2.79051
             Al 19 -- Ti 21                  0.16        -0.00          2.79051
             Al 19 -- Ti 19                  0.16        -0.00          2.79051
             Al 19 -- Ti 16                  0.16         0.00          2.79051
             Al 19 -- Ti 12                  0.16        -0.00          2.79051
             Al 19 -- Ti 10                  0.16         0.00          2.79051
             Al 16 -- Ti 9                   0.16        -0.00          2.79051
             Al 16 -- Ti 6                   0.16        -0.00          2.79051
             Al 14 -- Ti 1                   0.16         0.00          2.79051
             Al 13 -- Ti 12                  0.16         0.00          2.79051
             Al 13 -- Ti 3                   0.16         0.00          2.79051
             Al 13 -- Ti 1                   0.16         0.00          2.79051
             Al 12 -- Ti 9                   0.16         0.00          2.79051
             Al 12 -- Ti 8                   0.16         0.00          2.79051
             Al 11 -- Ti 16                  0.16         0.00          2.79051
             Al 11 -- Ti 7                   0.16         0.00          2.79051
             Al 11 -- Ti 1                   0.16         0.00          2.79051
             Al 10 -- Ti 18                  0.16        -0.00          2.79051
             Al 10 -- Ti 16                  0.16        -0.00          2.79051
             Al 10 -- Ti 12                  0.16        -0.00          2.79051
             Al 10 -- Ti 9                   0.16         0.00          2.79051
             Al 10 -- Ti 7                   0.16         0.00          2.79051
             Al 10 -- Ti 3                   0.16         0.00          2.79051
             Al 10 -- Ti 1                   0.16         0.00          2.79051
             Al 7  -- Ti 9                   0.16        -0.00          2.79051
             Al 7  -- Ti 6                   0.16         0.00          2.79051
             Al 5  -- Ti 1                   0.16         0.00          2.79051
             Al 4  -- Ti 3                   0.16         0.00          2.79051
             Al 4  -- Ti 1                   0.16        -0.00          2.79051
             Al 3  -- Ti 9                   0.16        -0.00          2.79051
             Al 3  -- Ti 8                   0.16         0.00          2.79051
             Al 2  -- Ti 7                   0.16         0.00          2.79051
             Al 2  -- Ti 1                   0.16        -0.00          2.79051
             Al 27 -- Ti 27                  0.16        -0.00          2.79051
             Al 27 -- Ti 26                  0.16        -0.00          2.79051
             Al 27 -- Ti 24                  0.16        -0.00          2.79051
             Al 27 -- Ti 23                  0.16         0.00          2.79051
             Al 27 -- Ti 18                  0.16         0.00          2.79051
             Al 27 -- Ti 17                  0.16         0.00          2.79051
             Al 27 -- Ti 15                  0.16         0.00          2.79051
             Al 27 -- Ti 14                  0.16         0.00          2.79051
             Al 18 -- Ti 9                   0.16         0.00          2.79051
             Al 18 -- Ti 8                   0.16         0.00          2.79051
             Al 18 -- Ti 6                   0.16        -0.00          2.79051
             Al 18 -- Ti 5                   0.16         0.00          2.79051
             Al 17 -- Ti 16                  0.16        -0.00          2.79051
             Al 17 -- Ti 13                  0.16        -0.00          2.79051
             Al 17 -- Ti 7                   0.16         0.00          2.79051
             Al 17 -- Ti 4                   0.16         0.00          2.79051
             Al 16 -- Ti 18                  0.16        -0.00          2.79051
             Al 16 -- Ti 16                  0.16        -0.00          2.79051
             Al 16 -- Ti 15                  0.16         0.00          2.79051
             Al 16 -- Ti 13                  0.16        -0.00          2.79051
             Al 16 -- Ti 7                   0.16        -0.00          2.79051
             Al 16 -- Ti 4                   0.16         0.00          2.79051
             Al 15 -- Ti 12                  0.16        -0.00          2.79051
             Al 15 -- Ti 11                  0.16        -0.00          2.79051
             Al 15 -- Ti 3                   0.16         0.00          2.79051
             Al 15 -- Ti 2                   0.16         0.00          2.79051
             Al 14 -- Ti 10                  0.16         0.00          2.79051
             Al 13 -- Ti 10                  0.16        -0.00          2.79051
             Al 12 -- Ti 18                  0.16        -0.00          2.79051
             Al 12 -- Ti 17                  0.16         0.00          2.79051
             Al 12 -- Ti 12                  0.16        -0.00          2.79051
             Al 12 -- Ti 11                  0.16        -0.00          2.79051
             Al 12 -- Ti 3                   0.16        -0.00          2.79051
             Al 12 -- Ti 2                   0.16        -0.00          2.79051
             Al 11 -- Ti 10                  0.16        -0.00          2.79051
             Al 10 -- Ti 10                  0.16        -0.00          2.79051
             Al 9  -- Ti 9                   0.16        -0.00          2.79051
             Al 9  -- Ti 8                   0.16        -0.00          2.79051
             Al 9  -- Ti 6                   0.16        -0.00          2.79051
             Al 9  -- Ti 5                   0.16         0.00          2.79051
             Al 8  -- Ti 7                   0.16        -0.00          2.79051
             Al 8  -- Ti 4                   0.16         0.00          2.79051
             Al 7  -- Ti 7                   0.16        -0.00          2.79051
             Al 7  -- Ti 4                   0.16         0.00          2.79051
             Al 6  -- Ti 3                   0.16         0.00          2.79051
             Al 6  -- Ti 2                   0.16        -0.00          2.79051
             Al 3  -- Ti 3                   0.16        -0.00          2.79051
             Al 3  -- Ti 2                   0.16        -0.00          2.79051
             Al 18 -- Ti 18                  0.16        -0.00          2.79051
             Al 18 -- Ti 17                  0.16        -0.00          2.79051
             Al 18 -- Ti 15                  0.16        -0.00          2.79051
             Al 18 -- Ti 14                  0.16         0.00          2.79051
             Al 26 -- Ti 26                  0.16        -0.00          2.79051
             Al 26 -- Ti 23                  0.16        -0.00          2.79051
             Al 26 -- Ti 17                  0.16         0.00          2.79051
             Al 26 -- Ti 14                  0.16         0.00          2.79051
             Al 24 -- Ti 24                  0.16        -0.00          2.79051
             Al 24 -- Ti 23                  0.16        -0.00          2.79051
             Al 24 -- Ti 15                  0.16         0.00          2.79051
             Al 24 -- Ti 14                  0.16         0.00          2.79051
             Al 23 -- Ti 22                  0.16        -0.00          2.79051
             Al 23 -- Ti 20                  0.16        -0.00          2.79051
             Al 23 -- Ti 13                  0.16        -0.00          2.79051
             Al 23 -- Ti 11                  0.16         0.00          2.79051
             Al 22 -- Ti 24                  0.16        -0.00          2.79051
             Al 22 -- Ti 22                  0.16         0.00          2.79051
             Al 22 -- Ti 15                  0.16         0.00          2.79051
             Al 22 -- Ti 13                  0.16        -0.00          2.79051
             Al 20 -- Ti 26                  0.16         0.00          2.79051
             Al 20 -- Ti 20                  0.16        -0.00          2.79051
             Al 20 -- Ti 17                  0.16         0.00          2.79051
             Al 20 -- Ti 11                  0.16         0.00          2.79051
             Al 14 -- Ti 4                   0.16        -0.00          2.79051
             Al 14 -- Ti 2                   0.16         0.00          2.79051
             Al 13 -- Ti 15                  0.16        -0.00          2.79051
             Al 13 -- Ti 6                   0.16         0.00          2.79051
             Al 13 -- Ti 4                   0.16        -0.00          2.79051
             Al 11 -- Ti 17                  0.16        -0.00          2.79051
             Al 11 -- Ti 8                   0.16        -0.00          2.79051
             Al 11 -- Ti 2                   0.16         0.00          2.79051
             Al 5  -- Ti 4                   0.16        -0.00          2.79051
             Al 5  -- Ti 2                   0.16        -0.00          2.79051
             Al 4  -- Ti 6                   0.16        -0.00          2.79051
             Al 4  -- Ti 4                   0.16        -0.00          2.79051
             Al 2  -- Ti 8                   0.16        -0.00          2.79051
             Al 2  -- Ti 2                   0.16        -0.00          2.79051
             Al 17 -- Ti 8                   0.16         0.00          2.79051
             Al 17 -- Ti 5                   0.16         0.00          2.79051
             Al 15 -- Ti 6                   0.16         0.00          2.79051
             Al 15 -- Ti 5                   0.16         0.00          2.79051
             Al 14 -- Ti 13                  0.16        -0.00          2.79051
             Al 14 -- Ti 11                  0.16        -0.00          2.79051
             Al 13 -- Ti 13                  0.16        -0.00          2.79051
             Al 11 -- Ti 11                  0.16        -0.00          2.79051
             Al 8  -- Ti 8                   0.16        -0.00          2.79051
             Al 8  -- Ti 5                   0.16        -0.00          2.79051
             Al 6  -- Ti 6                   0.16        -0.00          2.79051
             Al 6  -- Ti 5                   0.16        -0.00          2.79051
             Al 17 -- Ti 17                  0.16        -0.00          2.79051
             Al 17 -- Ti 14                  0.16        -0.00          2.79051
             Al 15 -- Ti 15                  0.16        -0.00          2.79051
             Al 15 -- Ti 14                  0.16        -0.00          2.79051
             Al 5  -- Ti 19                  0.16        -0.00          2.79052
             Al 4  -- Ti 21                  0.16         0.00          2.79052
             Al 4  -- Ti 19                  0.16        -0.00          2.79052
             Al 2  -- Ti 25                  0.16        -0.00          2.79052
             Al 2  -- Ti 19                  0.16         0.00          2.79052
             Al 9  -- Ti 27                  0.16         0.00          2.79052
             Al 9  -- Ti 26                  0.16         0.00          2.79052
             Al 9  -- Ti 24                  0.16         0.00          2.79052
             Al 9  -- Ti 23                  0.16        -0.00          2.79052
             Al 8  -- Ti 25                  0.16         0.00          2.79052
             Al 8  -- Ti 22                  0.16         0.00          2.79052
             Al 7  -- Ti 27                  0.16        -0.00          2.79052
             Al 7  -- Ti 25                  0.16         0.00          2.79052
             Al 7  -- Ti 24                  0.16        -0.00          2.79052
             Al 7  -- Ti 22                  0.16         0.00          2.79052
             Al 6  -- Ti 21                  0.16         0.00          2.79052
             Al 6  -- Ti 20                  0.16        -0.00          2.79052
             Al 3  -- Ti 27                  0.16         0.00          2.79052
             Al 3  -- Ti 26                  0.16        -0.00          2.79052
             Al 3  -- Ti 21                  0.16         0.00          2.79052
             Al 3  -- Ti 20                  0.16        -0.00          2.79052
             Al 23 -- Ti 23                  0.16        -0.00          2.79052
             Al 23 -- Ti 14                  0.16        -0.00          2.79052
             Al 14 -- Ti 14                  0.16        -0.00          2.79052
             Al 14 -- Ti 5                   0.16         0.00          2.79052
             Al 5  -- Ti 5                   0.16        -0.00          2.79052
             Al 5  -- Ti 22                  0.16        -0.00          2.79052
             Al 5  -- Ti 20                  0.16         0.00          2.79052
             Al 4  -- Ti 24                  0.16         0.00          2.79052
             Al 4  -- Ti 22                  0.16         0.00          2.79052
             Al 2  -- Ti 26                  0.16         0.00          2.79052
             Al 2  -- Ti 20                  0.16         0.00          2.79052
             Al 8  -- Ti 26                  0.16         0.00          2.79052
             Al 8  -- Ti 23                  0.16         0.00          2.79052
             Al 6  -- Ti 24                  0.16         0.00          2.79052
             Al 6  -- Ti 23                  0.16        -0.00          2.79052
             Al 5  -- Ti 23                  0.16         0.00          2.79052
             Al 1  -- Ti 25                  0.16         0.00          2.79358
             Al 1  -- Ti 19                  0.16         0.00          2.79358
             Al 1  -- Ti 27                  0.16         0.00          2.79921
             Al 1  -- Ti 21                  0.16        -0.00          2.79921
================================================================================

 
 A BibTeX formatted list of references used in this run has been written to 
 castep.bib
 
Initialisation time =     17.33 s
Calculation time    =   4666.64 s
Finalisation time   =      2.08 s
Total time          =   4686.04 s
Peak Memory Use     = 2082416 kB
  
Overall parallel efficiency rating: Very good (83%)                             
  
Data was distributed by:-
G-vector (2-way); efficiency rating: Very good (84%)                            
k-point (24-way); efficiency rating: Excellent (99%)                            
