2
Lattice="2.8669661655872427 -2.9318331621942335e-14 6.127577714927229e-14 -1.433483082793646 2.4828655324181472 3.026003925206831e-14 9.73059341130444e-14 1.1166636563571013e-13 4.526068215932085" Properties=species:S:1:pos:R:3 stress="-0.0038309052330516096 -6.397158424492024e-14 7.973926772672264e-14 -6.397158424492024e-14 -0.0038309053849440067 1.3250296447695732e-14 7.973926772672264e-14 1.3250296447695732e-14 0.00252853483356737" pbc="T T T" n_minim_iter=3
Ti      -0.00000000      -0.00000000      -0.00000000 
Ti       0.00000000       1.65524368       2.26303411 
