2
Lattice="3.1516233770813744 -1.5095317259862957e-17 -6.469421682798411e-18 -1.5095317259862957e-17 3.1516233770813744 -3.00031150506593e-18 -6.469421682798411e-18 -3.00031150506593e-18 3.1516233770813744" Properties=species:S:1:pos:R:3 stress="-0.008207653549562762 -6.02361020448642e-17 6.317309690077754e-18 -6.02361020448642e-17 -0.008207653549562677 9.088059554146945e-18 6.317309690077754e-18 9.088059554146945e-18 -0.008207653549562792" pbc="T T T" n_minim_iter=2
Ti       0.00000000       0.00000000      -0.00000000 
Ti       1.57581169       1.57581169       1.57581169 
