2
Lattice="3.32 0.0 0.0 0.0 3.32 0.0 0.0 0.0 3.32" Properties=species:S:1:pos:R:3 energy=-3186.91636942 pbc="T T T" n_minim_iter=1
Ti       0.00000000       0.00000000       0.00000000 
Ti       1.66000000       1.66000000       1.66000000 
2
Lattice="3.176262501605842 -3.273811502349482e-18 -1.4648712621413948e-18 -3.273811502349482e-18 3.176262501605842 1.7589258688086903e-17 -1.4648712621413948e-18 1.7589258688086903e-17 3.176262501605842" Properties=species:S:1:pos:R:3 stress="-0.005691878018484978 -7.181728791915898e-17 -6.786409143520484e-19 -7.181728791915898e-17 -0.005691878018484978 7.186175337119146e-18 -6.786409143520484e-19 7.186175337119146e-18 -0.005691878018485006" pbc="T T T" n_minim_iter=2
Ti       0.00000000      -0.00000000      -0.00000000 
Ti       1.58813125       1.58813125       1.58813125 
