2
Lattice="3.149569958102769 -3.246299180586673e-18 -1.4525608375869563e-18 -3.246299180586673e-18 3.149569958102769 1.7441442803070726e-17 -1.4525608375869563e-18 1.7441442803070726e-17 3.149569958102769" Properties=species:S:1:pos:R:3 energy=-3187.11285528 pbc="T T T" n_minim_iter=0
Ti       0.00000000      -0.00000000      -0.00000000 
Ti       1.57478498       1.57478498       1.57478498 
