2
Lattice="3.094783682479405 -3.1898303153036622e-18 -1.4272937695534268e-18 -3.1898303153036622e-18 3.094783682479405 1.713805164002643e-17 -1.4272937695534268e-18 1.713805164002643e-17 3.094783682479405" Properties=species:S:1:pos:R:3 energy=-3187.04739693 pbc="T T T" n_minim_iter=0
Ti       0.00000000      -0.00000000      -0.00000000 
Ti       1.54739184       1.54739184       1.54739184 
