2
Lattice="3.2283416349198104 -3.327490083886576e-18 -1.4888898140432897e-18 -3.327490083886576e-18 3.2283416349198104 1.7877658449645536e-17 -1.4888898140432897e-18 1.7877658449645536e-17 3.2283416349198104" Properties=species:S:1:pos:R:3 energy=-3187.10555421 pbc="T T T" n_minim_iter=0
Ti       0.00000000      -0.00000000      -0.00000000 
Ti       1.61417082       1.61417082       1.61417082 
