2
Lattice="3.3516784184710384 -3.4546147722423587e-18 -1.5457719230307568e-18 -3.4546147722423587e-18 3.3516784184710384 1.8560663267585595e-17 -1.5457719230307568e-18 1.8560663267585595e-17 3.3516784184710384" Properties=species:S:1:pos:R:3 energy=-3186.82111332 pbc="T T T" n_minim_iter=0
Ti       0.00000000      -0.00000000      -0.00000000 
Ti       1.67583921       1.67583921       1.67583921 
