2
Lattice="3.303446123678343 -3.4049011728792057e-18 -1.5235275076169706e-18 -3.4049011728792057e-18 3.303446123678343 1.8293566228282366e-17 -1.5235275076169706e-18 1.8293566228282366e-17 3.303446123678343" Properties=species:S:1:pos:R:3 energy=-3186.96146618 pbc="T T T" n_minim_iter=0
Ti       0.00000000      -0.00000000      -0.00000000 
Ti       1.65172306       1.65172306       1.65172306 
