2
Lattice="3.0379857919962263 -3.1312880546816236e-18 -1.4010989580487105e-18 -3.1312880546816236e-18 3.0379857919962263 1.6823520713145804e-17 -1.4010989580487105e-18 1.6823520713145804e-17 3.0379857919962263" Properties=species:S:1:pos:R:3 energy=-3186.92354345 pbc="T T T" n_minim_iter=0
Ti       0.00000000      -0.00000000      -0.00000000 
Ti       1.51899290       1.51899290       1.51899290 
