2
Lattice="3.0087725807358736 -3.1011776507095478e-18 -1.3876260181929774e-18 -3.1011776507095478e-18 3.0087725807358736 1.6661746070871024e-17 -1.3876260181929774e-18 1.6661746070871024e-17 3.0087725807358736" Properties=species:S:1:pos:R:3 energy=-3186.82564766 pbc="T T T" n_minim_iter=0
Ti       0.00000000      -0.00000000      -0.00000000 
Ti       1.50438629       1.50438629       1.50438629 
