2
Lattice="2.9175409130323215 -3.007144086747057e-18 -1.3455505763336853e-18 -3.007144086747057e-18 2.9175409130323215 1.615653045882005e-17 -1.3455505763336853e-18 1.615653045882005e-17 2.9175409130323215" Properties=species:S:1:pos:R:3 energy=-3186.3144846 pbc="T T T" n_minim_iter=0
Ti       0.00000000      -0.00000000      -0.00000000 
Ti       1.45877046       1.45877046       1.45877046 
