2
Lattice="3.3277370410632834 -3.4299381100647293e-18 -1.534730318086905e-18 -3.4299381100647293e-18 3.3277370410632834 1.8428082575542283e-17 -1.534730318086905e-18 1.8428082575542283e-17 3.3277370410632834" Properties=species:S:1:pos:R:3 energy=-3186.89410514 pbc="T T T" n_minim_iter=0
Ti       0.00000000      -0.00000000      -0.00000000 
Ti       1.66386852       1.66386852       1.66386852 
