2
Lattice="3.2787926218774084 -3.379490515627707e-18 -1.5121574756120334e-18 -3.379490515627707e-18 3.2787926218774084 1.815704198933026e-17 -1.5121574756120334e-18 1.815704198933026e-17 3.2787926218774084" Properties=species:S:1:pos:R:3 energy=-3187.02109791 pbc="T T T" n_minim_iter=0
Ti       0.00000000      -0.00000000      -0.00000000 
Ti       1.63939631       1.63939631       1.63939631 
