2
Lattice="3.176262501605842 -3.273811502349482e-18 -1.4648712621413948e-18 -3.273811502349482e-18 3.176262501605842 1.7589258688086903e-17 -1.4648712621413948e-18 1.7589258688086903e-17 3.176262501605842" Properties=species:S:1:pos:R:3 energy=-3187.12673128 pbc="T T T" n_minim_iter=0
Ti       0.00000000      -0.00000000      -0.00000000 
Ti       1.58813125       1.58813125       1.58813125 
