2
Lattice="3.066647728021363 -3.1608302527182333e-18 -1.4143176534113674e-18 -3.1608302527182333e-18 3.066647728021363 1.6982242546430252e-17 -1.4143176534113674e-18 1.6982242546430252e-17 3.066647728021363" Properties=species:S:1:pos:R:3 energy=-3186.99692223 pbc="T T T" n_minim_iter=0
Ti       0.00000000      -0.00000000      -0.00000000 
Ti       1.53332386       1.53332386       1.53332386 
