2
Lattice="3.1224171417995885 -3.218312450179601e-18 -1.4400381382607438e-18 -3.218312450179601e-18 3.1224171417995885 1.729107805524989e-17 -1.4400381382607438e-18 1.729107805524989e-17 3.1224171417995885" Properties=species:S:1:pos:R:3 energy=-3187.08302186 pbc="T T T" n_minim_iter=0
Ti       0.00000000      -0.00000000      -0.00000000 
Ti       1.56120857       1.56120857       1.56120857 
