2
Lattice="2.9485809120153337 -3.039137382531686e-18 -1.359866018607151e-18 -3.039137382531686e-18 2.9485809120153337 1.6328421343630144e-17 -1.359866018607151e-18 1.6328421343630144e-17 2.9485809120153337" Properties=species:S:1:pos:R:3 energy=-3186.53600026 pbc="T T T" n_minim_iter=0
Ti       0.00000000      -0.00000000      -0.00000000 
Ti       1.47429046       1.47429046       1.47429046 
