2
Lattice="3.42152505905354 -3.526606534643564e-18 -1.577984731794106e-18 -3.526606534643564e-18 3.42152505905354 1.894745454477957e-17 -1.577984731794106e-18 1.894745454477957e-17 3.42152505905354" Properties=species:S:1:pos:R:3 energy=-3186.58205417 pbc="T T T" n_minim_iter=0
Ti       0.00000000      -0.00000000      -0.00000000 
Ti       1.71076253       1.71076253       1.71076253 
