2
Lattice="3.375282565304846 -3.478943846860278e-18 -1.5566579994639009e-18 -3.478943846860278e-18 3.375282565304846 1.8691376470465244e-17 -1.5566579994639009e-18 1.8691376470465244e-17 3.375282565304846" Properties=species:S:1:pos:R:3 energy=-3186.74406142 pbc="T T T" n_minim_iter=0
Ti       0.00000000      -0.00000000      -0.00000000 
Ti       1.68764128       1.68764128       1.68764128 
