2
Lattice="3.2537626944494367 -3.353691872009543e-18 -1.5006138385970878e-18 -3.353691872009543e-18 3.2537626944494367 1.8018433209907256e-17 -1.5006138385970878e-18 1.8018433209907256e-17 3.2537626944494367" Properties=species:S:1:pos:R:3 energy=-3187.07026967 pbc="T T T" n_minim_iter=0
Ti       0.00000000      -0.00000000      -0.00000000 
Ti       1.62688135       1.62688135       1.62688135 
