2
Lattice="2.978980796419761 -3.0704709046140053e-18 -1.3738862442698448e-18 -3.0704709046140053e-18 2.978980796419761 1.6496767451864924e-17 -1.3738862442698448e-18 1.6496767451864924e-17 2.978980796419761" Properties=species:S:1:pos:R:3 energy=-3186.70116111 pbc="T T T" n_minim_iter=0
Ti       0.00000000      -0.00000000      -0.00000000 
Ti       1.48949040       1.48949040       1.48949040 
