2
Lattice="3.3269375351390016 4.743242108267486e-12 -3.865102015541399e-12 4.743242108267489e-12 3.326937535125005 -3.413146088565267e-12 -3.8651020155414e-12 -3.413146088565267e-12 3.326937535143982" Properties=species:S:1:pos:R:3 energy=-3186.90953908 pbc="T T T" n_minim_iter=0
Ti      -0.00000000       0.00000000      -0.00000000 
Ti       1.66346877       1.66346877       1.66346877 
