2
Lattice="3.1216669650361766 4.450586174269279e-12 -3.6266269357252058e-12 4.450586174269281e-12 3.1216669650230435 -3.2025564889577867e-12 -3.6266269357252066e-12 -3.2025564889577867e-12 3.1216669650408497" Properties=species:S:1:pos:R:3 energy=-3187.135814 pbc="T T T" n_minim_iter=0
Ti      -0.00000000       0.00000000      -0.00000000 
Ti       1.56083348       1.56083348       1.56083348 
