2
Lattice="2.947872500299416 4.2028059816397336e-12 -3.424719527230406e-12 4.202805981639735e-12 2.9478725002870143 -3.024258612527779e-12 -3.424719527230407e-12 -3.024258612527779e-12 2.9478725003038293" Properties=species:S:1:pos:R:3 energy=-3186.75684264 pbc="T T T" n_minim_iter=0
Ti      -0.00000000       0.00000000      -0.00000000 
Ti       1.47393625       1.47393625       1.47393625 
