2
Lattice="3.252980961242059 4.637801614784785e-12 -3.779182247041848e-12 4.6378016147847876e-12 3.2529809612283733 -3.337273130851472e-12 -3.779182247041849e-12 -3.337273130851472e-12 3.2529809612469283" Properties=species:S:1:pos:R:3 energy=-3187.09365566 pbc="T T T" n_minim_iter=0
Ti      -0.00000000       0.00000000      -0.00000000 
Ti       1.62649048       1.62649048       1.62649048 
