2
Lattice="3.094040144796594 4.4111983902505305e-12 -3.594531208810228e-12 4.411198390250532e-12 3.0940401447835773 -3.1742137946798532e-12 -3.5945312088102287e-12 -3.1742137946798532e-12 3.094040144801226" Properties=species:S:1:pos:R:3 energy=-3187.09454287 pbc="T T T" n_minim_iter=0
Ti      -0.00000000       0.00000000      -0.00000000 
Ti       1.54702007       1.54702007       1.54702007 
