2
Lattice="3.2017443749893104 4.56475319387785e-12 -3.719657645000684e-12 4.564753193877852e-12 3.2017443749758403 -3.284708887575802e-12 -3.719657645000685e-12 -3.284708887575802e-12 3.201744374994103" Properties=species:S:1:pos:R:3 energy=-3187.15726286 pbc="T T T" n_minim_iter=0
Ti      -0.00000000       0.00000000      -0.00000000 
Ti       1.60087219       1.60087219       1.60087219 
