2
Lattice="3.227566009252616 4.6015673094566315e-12 -3.749656179563343e-12 4.601567309456633e-12 3.227566009239037 -3.3111996193840508e-12 -3.749656179563344e-12 -3.3111996193840508e-12 3.227566009257447" Properties=species:S:1:pos:R:3 energy=-3187.13261444 pbc="T T T" n_minim_iter=0
Ti      -0.00000000       0.00000000      -0.00000000 
Ti       1.61378300       1.61378300       1.61378300 
