2
Lattice="3.148813257735712 4.489288866236236e-12 -3.658164405100346e-12 4.489288866236237e-12 3.1488132577224643 -3.230406204129128e-12 -3.658164405100347e-12 -3.230406204129128e-12 3.1488132577404255" Properties=species:S:1:pos:R:3 energy=-3187.1604783 pbc="T T T" n_minim_iter=0
Ti      -0.00000000       0.00000000      -0.00000000 
Ti       1.57440663       1.57440663       1.57440663 
