2
Lattice="3.065910950146193 4.371094366917294e-12 -3.561851843540967e-12 4.371094366917295e-12 3.0659109501332944 -3.1453557083222155e-12 -3.561851843540968e-12 -3.1453557083222155e-12 3.0659109501507826" Properties=species:S:1:pos:R:3 energy=-3187.03811812 pbc="T T T" n_minim_iter=0
Ti      -0.00000000       0.00000000      -0.00000000 
Ti       1.53295548       1.53295548       1.53295548 
