 +-------------------------------------------------+
 |                                                 |
 |      CCC   AA    SSS  TTTTT  EEEEE  PPPP        |
 |     C     A  A  S       T    E      P   P       |
 |     C     AAAA   SS     T    EEE    PPPP        |
 |     C     A  A     S    T    E      P           |
 |      CCC  A  A  SSS     T    EEEEE  P           |
 |                                                 |
 +-------------------------------------------------+
 |                                                 |
 | Welcome to Academic Release CASTEP version 17.21|          
 | Ab Initio Total Energy Program                  |
 |                                                 |
 | Authors:                                        |
 | M. Segall, M. Probert, C. Pickard, P. Hasnip,   |
 | S. Clark, K. Refson, J. R. Yates, M. Payne      |
 |                                                 |
 | Contributors:                                   |
 | P. Lindan, P. Haynes, J. White, V. Milman,      |
 | N. Govind, M. Gibson, P. Tulip, V. Cocula,      |
 | B. Montanari, D. Quigley, M. Glover,            |
 | L. Bernasconi, A. Perlov, M. Plummer,           |
 | E. McNellis, J. Meyer, J. Gale, D. Jochym       |
 | J. Aarons, B. Walker, R. Gillen, D. Jones       |
 | T. Green, I. J. Bush, C. J. Armstrong,          |
 | E. J. Higgins, E. L. Brown, M. S. McFly,        |
 | J. Wilkins, B-C. Shih, P. J. P. Byrne           |
 |                                                 |
 | Copyright (c) 2000 - 2017                       |
 |                                                 |
 |     Distributed under the terms of an           |
 |     Agreement between the United Kingdom        |
 |     Car-Parrinello (UKCP) Consortium,           |
 |     Daresbury Laboratory and Accelrys, Inc.     |
 |                                                 |
 | Please cite                                     |
 |                                                 |
 |     "First principles methods using CASTEP"     |
 |                                                 |
 |         Zeitschrift fuer Kristallographie       |
 |           220(5-6) pp. 567-570 (2005)           |
 |                                                 |
 | S. J. Clark, M. D. Segall, C. J. Pickard,       |
 | P. J. Hasnip, M. J. Probert, K. Refson,         |
 | M. C. Payne                                     |
 |                                                 |
 |       in all publications arising from          |
 |              your use of CASTEP                 |
 |                                                 |
 +-------------------------------------------------+


 Compiled for linux_x86_64_gfortran6.0-XT on Fri, 21 Jul 2017 10:20:05 +0100
 from code version 056e886bd5a1+ Castep172_branch Mon, 15 May 2017 14:45:35 +0100
 Compiler: GNU Fortran 6.3.0; Optimisation: fast
 MATHLIBS: Intel MKL(2017.0.0) (LAPACK version 3.6.0)
 FFT Lib : fftw3 version commercial-fftw-3.3.4-sse2-avx
 Fundamental constants values: CODATA 2010

 Run started: Wed, 11 Dec 2019 23:21:24 +0000

 Atomic calculation performed for Al: 1s2 2s2 2p6 3s2 3p1

 Converged in 55 iterations to an ae energy of -6578.725 eV

   ============================================================                
   | Pseudopotential Report - Date of generation 11-12-2019   |                
   ------------------------------------------------------------                
   | Element: Al Ionic charge:  3.00 Level of theory: LDA     |                
   | Atomic Solver: Koelling-Harmon                           |                
   |                                                          |                
   |               Reference Electronic Structure             |                
   |         Orbital         Occupation         Energy        |                
   |            3s              2.000           -0.288        |                
   |            3p              1.000           -0.102        |                
   |                                                          |                
   |                 Pseudopotential Definition               |                
   |        Beta     l      e      Rc     scheme   norm       |                
   |          1      0   -0.288   2.192     qc      0         |                
   |          2      0    0.250   2.192     qc      0         |                
   |          3      1   -0.102   2.192     qc      0         |                
   |          4      1    0.250   2.192     qc      0         |                
   |          5      2    0.000   2.000     qc      0         |                
   |          6      2    0.250   2.000     qc      0         |                
   |         loc     3    0.000   2.192     pn      0         |                
   |                                                          |                
   | Augmentation charge Rinner = 1.398                       |                
   | Partial core correction Rc = 1.398                       |                
   ------------------------------------------------------------                
   | "3|2.2|2.2|1.4|4|5|5|30:31:32U2U2"                       |                
   ------------------------------------------------------------                
   |      Author: Chris J. Pickard, Cambridge University      |                
   ============================================================                

 Pseudo atomic calculation performed for Al 3s2 3p1

 Converged in 15 iterations to a total energy of -105.5951 eV

 Calculation parallelised over 32 processes.
 Data is distributed by k-point(32-way)

 ************************************ Title ************************************
 

 ***************************** General Parameters ******************************
  
 output verbosity                               : normal  (1)
 write checkpoint data to                       : castep.check
 type of calculation                            : single point energy
 stress calculation                             : on
 density difference calculation                 : off
 electron localisation func (ELF) calculation   : off
 Hirshfeld analysis                             : off
 unlimited duration calculation
 timing information                             : on
 memory usage estimate                          : on
 write final potential to formatted file        : off
 write final density to formatted file          : off
 write BibTeX reference list                    : on
 write OTFG pseudopotential files               : on
 write electrostatic potential file             : on
 write bands file                               : on
 checkpoint writing                             : off
  
 output         length unit                     : A
 output           mass unit                     : amu
 output           time unit                     : ps
 output         charge unit                     : e
 output           spin unit                     : hbar/2
 output         energy unit                     : eV
 output          force unit                     : eV/A
 output       velocity unit                     : A/ps
 output       pressure unit                     : GPa
 output     inv_length unit                     : 1/A
 output      frequency unit                     : cm-1
 output force constant unit                     : eV/A**2
 output         volume unit                     : A**3
 output   IR intensity unit                     : (D/A)**2/amu
 output         dipole unit                     : D
 output         efield unit                     : eV/A/e
 output        entropy unit                     : J/mol/K
  
 wavefunctions paging                           : none
 random number generator seed                   : randomised (232124824)
 data distribution                              : optimal for this architecture
 optimization strategy                          : balance speed and memory

 *********************** Exchange-Correlation Parameters ***********************
  
 using functional                               : Local Density Approximation
 relativistic treatment                         : Koelling-Harmon
 DFT+D: Semi-empirical dispersion correction    : off

 ************************* Pseudopotential Parameters **************************
  
 pseudopotential representation                 : reciprocal space
 <beta|phi> representation                      : reciprocal space
 spin-orbit coupling                            : off

 **************************** Basis Set Parameters *****************************
  
 plane wave basis set cut-off                   :   500.0000   eV
 size of standard grid                          :     1.7500
 size of   fine   gmax                          :    20.0476   1/A
 finite basis set correction                    : automatic
 number of sample energies                      :          3
           sample  spacing                      :     5.0000   eV

 **************************** Electronic Parameters ****************************
  
 number of  electrons                           :  96.00    
 net charge of system                           :  0.000    
 treating system as non-spin-polarized
 number of bands                                :         58

 ********************* Electronic Minimization Parameters **********************
  
 Method: Treating system as metallic with density mixing treatment of electrons,
         and number of  SD  steps               :          1
         and number of  CG  steps               :          4
  
 total energy / atom convergence tol.           : 0.1000E-04   eV
 eigen-energy convergence tolerance             : 0.1000E-05   eV
 max force / atom convergence tol.              : ignored
 convergence tolerance window                   :          3   cycles
 max. number of SCF cycles                      :        250
 number of fixed-spin iterations                :         10
 smearing scheme                                : Gaussian
 smearing width                                 : 0.1000       eV
 Fermi energy convergence tolerance             : 0.2721E-13   eV
 periodic dipole correction                     : NONE

 ************************** Density Mixing Parameters **************************
  
 density-mixing scheme                          : Pulay
 max. length of mixing history                  :         20
 charge density mixing amplitude                : 0.8000    
 cut-off energy for mixing                      :  500.0       eV

 *********************** Population Analysis Parameters ************************
  
 Population analysis with cutoff                :  3.000       A

 *******************************************************************************
  

                           -------------------------------
                                      Unit Cell
                           -------------------------------
        Real Lattice(A)                      Reciprocal Lattice(1/A)
   8.0000000   0.0000000   0.0000000        0.7853982   0.0000000   0.0000000
   0.0000000   8.0000000   0.0000000        0.0000000   0.7853982   0.0000000
   0.0000000   0.0000000   8.0000000        0.0000000   0.0000000   0.7853982

                       Lattice parameters(A)       Cell Angles
                    a =    8.000000          alpha =   90.000000
                    b =    8.000000          beta  =   90.000000
                    c =    8.000000          gamma =   90.000000

                       Current cell volume =  512.000000       A**3
                                   density =    1.686346   AMU/A**3
                                           =    2.800244     g/cm^3

                           -------------------------------
                                     Cell Contents
                           -------------------------------
                         Total number of ions in cell =   32
                      Total number of species in cell =    1
                        Max number of any one species =   32

            xxxxxxxxxxxxxxxxxxxxxxxxxxxxxxxxxxxxxxxxxxxxxxxxxxxxxxxxxxxx
            x  Element    Atom        Fractional coordinates of atoms  x
            x            Number           u          v          w      x
            x----------------------------------------------------------x
            x  Al           1         0.001250   0.000000   0.000000   x 
            x  Al           2         0.500000   0.000000   0.000000   x 
            x  Al           3         0.000000   0.500000   0.000000   x 
            x  Al           4         0.500000   0.500000   0.000000   x 
            x  Al           5         0.000000   0.000000   0.500000   x 
            x  Al           6         0.500000   0.000000   0.500000   x 
            x  Al           7         0.000000   0.500000   0.500000   x 
            x  Al           8         0.500000   0.500000   0.500000   x 
            x  Al           9         0.250000   0.250000   0.000000   x 
            x  Al          10         0.750000   0.250000   0.000000   x 
            x  Al          11         0.250000   0.750000   0.000000   x 
            x  Al          12         0.750000   0.750000   0.000000   x 
            x  Al          13         0.250000   0.250000   0.500000   x 
            x  Al          14         0.750000   0.250000   0.500000   x 
            x  Al          15         0.250000   0.750000   0.500000   x 
            x  Al          16         0.750000   0.750000   0.500000   x 
            x  Al          17         0.250000   0.000000   0.250000   x 
            x  Al          18         0.750000   0.000000   0.250000   x 
            x  Al          19         0.250000   0.500000   0.250000   x 
            x  Al          20         0.750000   0.500000   0.250000   x 
            x  Al          21         0.250000   0.000000   0.750000   x 
            x  Al          22         0.750000   0.000000   0.750000   x 
            x  Al          23         0.250000   0.500000   0.750000   x 
            x  Al          24         0.750000   0.500000   0.750000   x 
            x  Al          25         0.000000   0.250000   0.250000   x 
            x  Al          26         0.500000   0.250000   0.250000   x 
            x  Al          27         0.000000   0.750000   0.250000   x 
            x  Al          28         0.500000   0.750000   0.250000   x 
            x  Al          29         0.000000   0.250000   0.750000   x 
            x  Al          30         0.500000   0.250000   0.750000   x 
            x  Al          31         0.000000   0.750000   0.750000   x 
            x  Al          32         0.500000   0.750000   0.750000   x 
            xxxxxxxxxxxxxxxxxxxxxxxxxxxxxxxxxxxxxxxxxxxxxxxxxxxxxxxxxxxx


                         No user defined ionic velocities

                           -------------------------------
                                   Details of Species
                           -------------------------------

                               Mass of species in AMU
                                    Al   26.9815400

                          Electric Quadrupole Moment (Barn)
                                    Al    0.1466000 Isotope 27

                          Files used for pseudopotentials:
                                    Al 3|2.2|2.2|1.4|4|5|5|30:31:32U2U2

                           -------------------------------
                              k-Points For BZ Sampling
                           -------------------------------
                       MP grid size for SCF calculation is  4  4  4
                            with an offset of   0.000  0.000  0.000
                       Number of kpoints used =            32

                           -------------------------------
                               Symmetry and Constraints
                           -------------------------------

                      Maximum deviation from symmetry =  0.00000         ANG

                      Number of symmetry operations   =           1
                      Number of ionic constraints     =           3
                      Point group of crystal =     1: C1, 1, 1
                      Space group of crystal =    99: P4mm, P 4 -2

             Set iprint > 1 for details on symmetry rotations/translations

                         Centre of mass is constrained
             Set iprint > 1 for details of linear ionic constraints

                         Number of cell constraints= 0
                         Cell constraints are:  1 2 3 4 5 6

                         External pressure/stress (GPa)
                          0.00000   0.00000   0.00000
                                    0.00000   0.00000
                                              0.00000
  
+---------------- MEMORY AND SCRATCH DISK ESTIMATES PER PROCESS --------------+
|                                                     Memory          Disk    |
| Baseline code, static data and system overhead      171.0 MB         0.0 MB |
| BLAS internal memory storage                          0.0 MB         0.0 MB |
| Model and support data                              181.3 MB       209.4 MB |
| Electronic energy minimisation requirements         110.6 MB         0.0 MB |
| Force calculation requirements                       22.8 MB         0.0 MB |
| Stress calculation requirements                      25.2 MB         0.0 MB |
|                                               ----------------------------- |
| Approx. total storage required per process          462.9 MB       209.4 MB |
|                                                                             |
| Requirements will fluctuate during execution and may exceed these estimates |
+-----------------------------------------------------------------------------+
Calculating finite basis set correction with  3 cut-off energies.
Calculating total energy with cut-off of  490.000 eV.
------------------------------------------------------------------------ <-- SCF
SCF loop      Energy           Fermi           Energy gain       Timer   <-- SCF
                               energy          per atom          (sec)   <-- SCF
------------------------------------------------------------------------ <-- SCF
Initial   6.83074619E+002  0.00000000E+000                        11.69  <-- SCF
      1  -3.19893452E+003  8.03805677E+000   1.21312785E+002      28.66  <-- SCF
      2  -3.49910117E+003  5.42244810E+000   9.38020795E+000      42.43  <-- SCF
      3  -3.51404490E+003  5.48018418E+000   4.66991522E-001      56.44  <-- SCF
      4  -3.51346584E+003  5.45530858E+000  -1.80956852E-002      74.72  <-- SCF
      5  -3.51337219E+003  5.44290611E+000  -2.92661386E-003      85.96  <-- SCF
      6  -3.51337212E+003  5.44266233E+000  -2.02404542E-006      95.85  <-- SCF
      7  -3.51337212E+003  5.44263585E+000  -1.12594867E-007     104.57  <-- SCF
------------------------------------------------------------------------ <-- SCF
 
Final energy, E             =  -3513.308781836     eV
Final free energy (E-TS)    =  -3513.372116814     eV
(energies not corrected for finite basis set)
 
NB est. 0K energy (E-0.5TS)      =  -3513.340449325     eV
 
Calculating total energy with cut-off of  495.000 eV.
------------------------------------------------------------------------ <-- SCF
SCF loop      Energy           Fermi           Energy gain       Timer   <-- SCF
                               energy          per atom          (sec)   <-- SCF
------------------------------------------------------------------------ <-- SCF
Initial  -3.51330878E+003  0.00000000E+000                       111.36  <-- SCF
      1  -3.51337213E+003  5.44264085E+000   1.97952459E-003     124.39  <-- SCF
      2  -3.51337213E+003  5.44264084E+000   9.61133077E-009     132.27  <-- SCF
      3  -3.51337212E+003  5.44264138E+000  -5.19608680E-008     139.86  <-- SCF
      4  -3.51337212E+003  5.44264170E+000  -3.09695992E-010     147.45  <-- SCF
------------------------------------------------------------------------ <-- SCF
 
Final energy, E             =  -3513.308792590     eV
Final free energy (E-TS)    =  -3513.372124879     eV
(energies not corrected for finite basis set)
 
NB est. 0K energy (E-0.5TS)      =  -3513.340458735     eV
 
Calculating total energy with cut-off of  500.000 eV.
------------------------------------------------------------------------ <-- SCF
SCF loop      Energy           Fermi           Energy gain       Timer   <-- SCF
                               energy          per atom          (sec)   <-- SCF
------------------------------------------------------------------------ <-- SCF
Initial  -3.51330879E+003  0.00000000E+000                       154.26  <-- SCF
      1  -3.51337213E+003  5.44264198E+000   1.97938607E-003     166.57  <-- SCF
      2  -3.51337213E+003  5.44264198E+000   2.66216744E-010     174.18  <-- SCF
      3  -3.51337213E+003  5.44264189E+000  -1.78738623E-009     181.78  <-- SCF
      4  -3.51337213E+003  5.44264189E+000  -4.23433259E-011     189.39  <-- SCF
------------------------------------------------------------------------ <-- SCF
 
Final energy, E             =  -3513.308800648     eV
Final free energy (E-TS)    =  -3513.372132882     eV
(energies not corrected for finite basis set)
 
NB est. 0K energy (E-0.5TS)      =  -3513.340466765     eV
 
 For future reference: finite basis dEtot/dlog(Ecut) =      -0.000807eV
 Total energy corrected for finite basis set =   -3513.372133 eV

 ******************* Unconstrained Forces *******************
 *                                                          *
 *               Cartesian components (eV/A)                *
 * -------------------------------------------------------- *
 *                         x            y            z      *
 *                                                          *
 * Al              1     -0.04628     -0.00001     -0.00000 *
 * Al              2      0.00225     -0.00001     -0.00000 *
 * Al              3     -0.00026      0.00001     -0.00000 *
 * Al              4      0.00075      0.00001     -0.00000 *
 * Al              5     -0.00025     -0.00001      0.00000 *
 * Al              6      0.00075     -0.00001      0.00000 *
 * Al              7      0.00080      0.00001      0.00000 *
 * Al              8     -0.00108      0.00001      0.00000 *
 * Al              9      0.00621      0.00661     -0.00000 *
 * Al             10      0.00606     -0.00638     -0.00000 *
 * Al             11      0.00622     -0.00661     -0.00000 *
 * Al             12      0.00606      0.00638     -0.00000 *
 * Al             13     -0.00008      0.00012      0.00000 *
 * Al             14     -0.00009     -0.00010      0.00000 *
 * Al             15     -0.00008     -0.00012      0.00000 *
 * Al             16     -0.00009      0.00011      0.00000 *
 * Al             17      0.00621     -0.00001      0.00661 *
 * Al             18      0.00606     -0.00001     -0.00637 *
 * Al             19     -0.00008      0.00001      0.00013 *
 * Al             20     -0.00009      0.00001     -0.00010 *
 * Al             21      0.00622     -0.00001     -0.00661 *
 * Al             22      0.00606     -0.00001      0.00637 *
 * Al             23     -0.00008      0.00001     -0.00013 *
 * Al             24     -0.00009      0.00001      0.00010 *
 * Al             25     -0.00092     -0.00002     -0.00001 *
 * Al             26     -0.00035      0.00001      0.00001 *
 * Al             27     -0.00092      0.00002     -0.00001 *
 * Al             28     -0.00035     -0.00001      0.00001 *
 * Al             29     -0.00092     -0.00002      0.00001 *
 * Al             30     -0.00036      0.00001     -0.00001 *
 * Al             31     -0.00092      0.00002      0.00001 *
 * Al             32     -0.00035     -0.00001     -0.00001 *
 *                                                          *
 ************************************************************

 ******************** Constrained Forces ********************
 *                                                          *
 *               Cartesian components (eV/A)                *
 * -------------------------------------------------------- *
 *                         x            y            z      *
 *                                                          *
 * Al              1     -0.04628     -0.00001     -0.00000 *
 * Al              2      0.00225     -0.00001     -0.00000 *
 * Al              3     -0.00026      0.00001     -0.00000 *
 * Al              4      0.00075      0.00001     -0.00000 *
 * Al              5     -0.00025     -0.00001      0.00000 *
 * Al              6      0.00075     -0.00001      0.00000 *
 * Al              7      0.00080      0.00001      0.00000 *
 * Al              8     -0.00108      0.00001      0.00000 *
 * Al              9      0.00621      0.00661     -0.00000 *
 * Al             10      0.00606     -0.00638     -0.00000 *
 * Al             11      0.00622     -0.00661     -0.00000 *
 * Al             12      0.00606      0.00638     -0.00000 *
 * Al             13     -0.00008      0.00012      0.00000 *
 * Al             14     -0.00009     -0.00010      0.00000 *
 * Al             15     -0.00008     -0.00012      0.00000 *
 * Al             16     -0.00009      0.00011      0.00000 *
 * Al             17      0.00621     -0.00001      0.00661 *
 * Al             18      0.00606     -0.00001     -0.00637 *
 * Al             19     -0.00008      0.00001      0.00013 *
 * Al             20     -0.00009      0.00001     -0.00010 *
 * Al             21      0.00622     -0.00001     -0.00661 *
 * Al             22      0.00606     -0.00001      0.00637 *
 * Al             23     -0.00008      0.00001     -0.00013 *
 * Al             24     -0.00009      0.00001      0.00010 *
 * Al             25     -0.00092     -0.00002     -0.00001 *
 * Al             26     -0.00035      0.00001      0.00001 *
 * Al             27     -0.00092      0.00002     -0.00001 *
 * Al             28     -0.00035     -0.00001      0.00001 *
 * Al             29     -0.00092     -0.00002      0.00001 *
 * Al             30     -0.00036      0.00001     -0.00001 *
 * Al             31     -0.00092      0.00002      0.00001 *
 * Al             32     -0.00035     -0.00001     -0.00001 *
 *                                                          *
 ************************************************************

 ***************** Stress Tensor *****************
 *                                               *
 *          Cartesian components (GPa)           *
 * --------------------------------------------- *
 *             x             y             z     *
 *                                               *
 *  x      1.260746     -0.000000     -0.000000  *
 *  y     -0.000000      1.260871     -0.000000  *
 *  z     -0.000000     -0.000000      1.260870  *
 *                                               *
 *  Pressure:   -1.2608                          *
 *                                               *
 *************************************************

 Pseudo atomic calculation performed for Al 3s2 3p1

 Converged in 15 iterations to a total energy of -105.5951 eV

Charge spilling parameter for spin component 1 = 1.62%

     Atomic Populations (Mulliken)
     -----------------------------
Species          Ion     s      p      d      f     Total  Charge (e)
=====================================================================
  Al              1     1.11   1.89   0.00   0.00   3.00     0.00
  Al              2     1.11   1.89   0.00   0.00   3.00     0.00
  Al              3     1.11   1.89   0.00   0.00   3.00     0.00
  Al              4     1.11   1.89   0.00   0.00   3.00     0.00
  Al              5     1.11   1.89   0.00   0.00   3.00     0.00
  Al              6     1.11   1.89   0.00   0.00   3.00     0.00
  Al              7     1.11   1.89   0.00   0.00   3.00     0.00
  Al              8     1.11   1.89   0.00   0.00   3.00     0.00
  Al              9     1.11   1.89   0.00   0.00   3.00    -0.00
  Al             10     1.11   1.89   0.00   0.00   3.00     0.00
  Al             11     1.11   1.89   0.00   0.00   3.00    -0.00
  Al             12     1.11   1.89   0.00   0.00   3.00     0.00
  Al             13     1.11   1.89   0.00   0.00   3.00    -0.00
  Al             14     1.11   1.89   0.00   0.00   3.00     0.00
  Al             15     1.11   1.89   0.00   0.00   3.00    -0.00
  Al             16     1.11   1.89   0.00   0.00   3.00     0.00
  Al             17     1.11   1.89   0.00   0.00   3.00    -0.00
  Al             18     1.11   1.89   0.00   0.00   3.00     0.00
  Al             19     1.11   1.89   0.00   0.00   3.00    -0.00
  Al             20     1.11   1.89   0.00   0.00   3.00     0.00
  Al             21     1.11   1.89   0.00   0.00   3.00    -0.00
  Al             22     1.11   1.89   0.00   0.00   3.00     0.00
  Al             23     1.11   1.89   0.00   0.00   3.00    -0.00
  Al             24     1.11   1.89   0.00   0.00   3.00     0.00
  Al             25     1.11   1.89   0.00   0.00   3.00     0.00
  Al             26     1.11   1.89   0.00   0.00   3.00     0.00
  Al             27     1.11   1.89   0.00   0.00   3.00     0.00
  Al             28     1.11   1.89   0.00   0.00   3.00     0.00
  Al             29     1.11   1.89   0.00   0.00   3.00     0.00
  Al             30     1.11   1.89   0.00   0.00   3.00     0.00
  Al             31     1.11   1.89   0.00   0.00   3.00     0.00
  Al             32     1.11   1.89   0.00   0.00   3.00     0.00
=====================================================================

                 Bond                   Population      Length (A)
======================================================================
             Al 1  -- Al 21                  0.18        2.82136
             Al 1  -- Al 17                  0.18        2.82136
             Al 1  -- Al 11                  0.18        2.82136
             Al 1  -- Al 9                   0.18        2.82136
             Al 24 -- Al 32                  0.18        2.82843
             Al 24 -- Al 31                  0.18        2.82843
             Al 24 -- Al 30                  0.18        2.82843
             Al 24 -- Al 29                  0.18        2.82843
             Al 23 -- Al 32                  0.18        2.82843
             Al 23 -- Al 31                  0.18        2.82843
             Al 23 -- Al 30                  0.18        2.82843
             Al 23 -- Al 29                  0.18        2.82843
             Al 22 -- Al 32                  0.18        2.82843
             Al 22 -- Al 31                  0.18        2.82843
             Al 22 -- Al 30                  0.18        2.82843
             Al 22 -- Al 29                  0.18        2.82843
             Al 21 -- Al 32                  0.18        2.82843
             Al 21 -- Al 31                  0.18        2.82843
             Al 21 -- Al 30                  0.18        2.82843
             Al 21 -- Al 29                  0.18        2.82843
             Al 20 -- Al 28                  0.18        2.82843
             Al 20 -- Al 27                  0.18        2.82843
             Al 20 -- Al 26                  0.18        2.82843
             Al 20 -- Al 25                  0.18        2.82843
             Al 19 -- Al 28                  0.18        2.82843
             Al 19 -- Al 27                  0.18        2.82843
             Al 19 -- Al 26                  0.18        2.82843
             Al 19 -- Al 25                  0.18        2.82843
             Al 18 -- Al 28                  0.18        2.82843
             Al 18 -- Al 27                  0.18        2.82843
             Al 18 -- Al 26                  0.18        2.82843
             Al 18 -- Al 25                  0.18        2.82843
             Al 17 -- Al 28                  0.18        2.82843
             Al 17 -- Al 27                  0.18        2.82843
             Al 17 -- Al 26                  0.18        2.82843
             Al 17 -- Al 25                  0.18        2.82843
             Al 16 -- Al 32                  0.18        2.82843
             Al 16 -- Al 31                  0.18        2.82843
             Al 16 -- Al 28                  0.18        2.82843
             Al 16 -- Al 27                  0.18        2.82843
             Al 16 -- Al 24                  0.18        2.82843
             Al 16 -- Al 22                  0.18        2.82843
             Al 16 -- Al 20                  0.18        2.82843
             Al 16 -- Al 18                  0.18        2.82843
             Al 15 -- Al 32                  0.18        2.82843
             Al 15 -- Al 31                  0.18        2.82843
             Al 15 -- Al 28                  0.18        2.82843
             Al 15 -- Al 27                  0.18        2.82843
             Al 15 -- Al 23                  0.18        2.82843
             Al 15 -- Al 21                  0.18        2.82843
             Al 15 -- Al 19                  0.18        2.82843
             Al 15 -- Al 17                  0.18        2.82843
             Al 14 -- Al 30                  0.18        2.82843
             Al 14 -- Al 29                  0.18        2.82843
             Al 14 -- Al 26                  0.18        2.82843
             Al 14 -- Al 25                  0.18        2.82843
             Al 14 -- Al 24                  0.18        2.82843
             Al 14 -- Al 22                  0.18        2.82843
             Al 14 -- Al 20                  0.18        2.82843
             Al 14 -- Al 18                  0.18        2.82843
             Al 13 -- Al 30                  0.18        2.82843
             Al 13 -- Al 29                  0.18        2.82843
             Al 13 -- Al 26                  0.18        2.82843
             Al 13 -- Al 25                  0.18        2.82843
             Al 13 -- Al 23                  0.18        2.82843
             Al 13 -- Al 21                  0.18        2.82843
             Al 13 -- Al 19                  0.18        2.82843
             Al 13 -- Al 17                  0.18        2.82843
             Al 12 -- Al 32                  0.18        2.82843
             Al 12 -- Al 31                  0.18        2.82843
             Al 12 -- Al 28                  0.18        2.82843
             Al 12 -- Al 27                  0.18        2.82843
             Al 12 -- Al 24                  0.18        2.82843
             Al 12 -- Al 22                  0.18        2.82843
             Al 12 -- Al 20                  0.18        2.82843
             Al 12 -- Al 18                  0.18        2.82843
             Al 11 -- Al 32                  0.18        2.82843
             Al 11 -- Al 31                  0.18        2.82843
             Al 11 -- Al 28                  0.18        2.82843
             Al 11 -- Al 27                  0.18        2.82843
             Al 11 -- Al 23                  0.18        2.82843
             Al 11 -- Al 21                  0.17        2.82843
             Al 11 -- Al 19                  0.18        2.82843
             Al 11 -- Al 17                  0.17        2.82843
             Al 10 -- Al 30                  0.18        2.82843
             Al 10 -- Al 29                  0.18        2.82843
             Al 10 -- Al 26                  0.18        2.82843
             Al 10 -- Al 25                  0.18        2.82843
             Al 10 -- Al 24                  0.18        2.82843
             Al 10 -- Al 22                  0.18        2.82843
             Al 10 -- Al 20                  0.18        2.82843
             Al 10 -- Al 18                  0.18        2.82843
             Al 9  -- Al 30                  0.18        2.82843
             Al 9  -- Al 29                  0.18        2.82843
             Al 9  -- Al 26                  0.18        2.82843
             Al 9  -- Al 25                  0.18        2.82843
             Al 9  -- Al 23                  0.18        2.82843
             Al 9  -- Al 21                  0.17        2.82843
             Al 9  -- Al 19                  0.18        2.82843
             Al 9  -- Al 17                  0.17        2.82843
             Al 8  -- Al 32                  0.18        2.82843
             Al 8  -- Al 30                  0.18        2.82843
             Al 8  -- Al 28                  0.18        2.82843
             Al 8  -- Al 26                  0.18        2.82843
             Al 8  -- Al 24                  0.18        2.82843
             Al 8  -- Al 23                  0.18        2.82843
             Al 8  -- Al 20                  0.18        2.82843
             Al 8  -- Al 19                  0.18        2.82843
             Al 8  -- Al 16                  0.18        2.82843
             Al 8  -- Al 15                  0.18        2.82843
             Al 8  -- Al 14                  0.18        2.82843
             Al 8  -- Al 13                  0.18        2.82843
             Al 7  -- Al 31                  0.18        2.82843
             Al 7  -- Al 29                  0.18        2.82843
             Al 7  -- Al 27                  0.18        2.82843
             Al 7  -- Al 25                  0.18        2.82843
             Al 7  -- Al 24                  0.18        2.82843
             Al 7  -- Al 23                  0.18        2.82843
             Al 7  -- Al 20                  0.18        2.82843
             Al 7  -- Al 19                  0.18        2.82843
             Al 7  -- Al 16                  0.18        2.82843
             Al 7  -- Al 15                  0.18        2.82843
             Al 7  -- Al 14                  0.18        2.82843
             Al 7  -- Al 13                  0.18        2.82843
             Al 6  -- Al 32                  0.18        2.82843
             Al 6  -- Al 30                  0.18        2.82843
             Al 6  -- Al 28                  0.18        2.82843
             Al 6  -- Al 26                  0.18        2.82843
             Al 6  -- Al 22                  0.18        2.82843
             Al 6  -- Al 21                  0.18        2.82843
             Al 6  -- Al 18                  0.18        2.82843
             Al 6  -- Al 17                  0.18        2.82843
             Al 6  -- Al 16                  0.18        2.82843
             Al 6  -- Al 15                  0.18        2.82843
             Al 6  -- Al 14                  0.18        2.82843
             Al 6  -- Al 13                  0.18        2.82843
             Al 5  -- Al 31                  0.18        2.82843
             Al 5  -- Al 29                  0.18        2.82843
             Al 5  -- Al 27                  0.18        2.82843
             Al 5  -- Al 25                  0.18        2.82843
             Al 5  -- Al 22                  0.18        2.82843
             Al 5  -- Al 21                  0.18        2.82843
             Al 5  -- Al 18                  0.18        2.82843
             Al 5  -- Al 17                  0.18        2.82843
             Al 5  -- Al 16                  0.18        2.82843
             Al 5  -- Al 15                  0.18        2.82843
             Al 5  -- Al 14                  0.18        2.82843
             Al 5  -- Al 13                  0.18        2.82843
             Al 4  -- Al 32                  0.18        2.82843
             Al 4  -- Al 30                  0.18        2.82843
             Al 4  -- Al 28                  0.18        2.82843
             Al 4  -- Al 26                  0.18        2.82843
             Al 4  -- Al 24                  0.18        2.82843
             Al 4  -- Al 23                  0.18        2.82843
             Al 4  -- Al 20                  0.18        2.82843
             Al 4  -- Al 19                  0.18        2.82843
             Al 4  -- Al 12                  0.18        2.82843
             Al 4  -- Al 11                  0.18        2.82843
             Al 4  -- Al 10                  0.18        2.82843
             Al 4  -- Al 9                   0.18        2.82843
             Al 3  -- Al 31                  0.18        2.82843
             Al 3  -- Al 29                  0.18        2.82843
             Al 3  -- Al 27                  0.18        2.82843
             Al 3  -- Al 25                  0.18        2.82843
             Al 3  -- Al 24                  0.18        2.82843
             Al 3  -- Al 23                  0.18        2.82843
             Al 3  -- Al 20                  0.18        2.82843
             Al 3  -- Al 19                  0.18        2.82843
             Al 3  -- Al 12                  0.18        2.82843
             Al 3  -- Al 11                  0.18        2.82843
             Al 3  -- Al 10                  0.18        2.82843
             Al 3  -- Al 9                   0.18        2.82843
             Al 2  -- Al 32                  0.18        2.82843
             Al 2  -- Al 30                  0.18        2.82843
             Al 2  -- Al 28                  0.18        2.82843
             Al 2  -- Al 26                  0.18        2.82843
             Al 2  -- Al 22                  0.18        2.82843
             Al 2  -- Al 21                  0.18        2.82843
             Al 2  -- Al 18                  0.18        2.82843
             Al 2  -- Al 17                  0.18        2.82843
             Al 2  -- Al 12                  0.18        2.82843
             Al 2  -- Al 11                  0.18        2.82843
             Al 2  -- Al 10                  0.18        2.82843
             Al 2  -- Al 9                   0.18        2.82843
             Al 1  -- Al 31                  0.18        2.82844
             Al 1  -- Al 29                  0.18        2.82844
             Al 1  -- Al 27                  0.18        2.82844
             Al 1  -- Al 25                  0.18        2.82844
             Al 1  -- Al 22                  0.17        2.83551
             Al 1  -- Al 18                  0.17        2.83551
             Al 1  -- Al 12                  0.17        2.83551
             Al 1  -- Al 10                  0.17        2.83551
======================================================================

 
 A BibTeX formatted list of references used in this run has been written to 
 castep.bib
 
Initialisation time =      6.47 s
Calculation time    =    435.32 s
Finalisation time   =      0.07 s
Total time          =    441.86 s
Peak Memory Use     = 1131648 kB
  
Overall parallel efficiency rating: Excellent (97%)                             
  
Data was distributed by:-
k-point (32-way); efficiency rating: Excellent (97%)                            
  
Parallel notes:
1) Calculation only took 441.8 s, so efficiency estimates may be inaccurate.    
