 +-------------------------------------------------+
 |                                                 |
 |      CCC   AA    SSS  TTTTT  EEEEE  PPPP        |
 |     C     A  A  S       T    E      P   P       |
 |     C     AAAA   SS     T    EEE    PPPP        |
 |     C     A  A     S    T    E      P           |
 |      CCC  A  A  SSS     T    EEEEE  P           |
 |                                                 |
 +-------------------------------------------------+
 |                                                 |
 | Welcome to Academic Release CASTEP version 17.21|          
 | Ab Initio Total Energy Program                  |
 |                                                 |
 | Authors:                                        |
 | M. Segall, M. Probert, C. Pickard, P. Hasnip,   |
 | S. Clark, K. Refson, J. R. Yates, M. Payne      |
 |                                                 |
 | Contributors:                                   |
 | P. Lindan, P. Haynes, J. White, V. Milman,      |
 | N. Govind, M. Gibson, P. Tulip, V. Cocula,      |
 | B. Montanari, D. Quigley, M. Glover,            |
 | L. Bernasconi, A. Perlov, M. Plummer,           |
 | E. McNellis, J. Meyer, J. Gale, D. Jochym       |
 | J. Aarons, B. Walker, R. Gillen, D. Jones       |
 | T. Green, I. J. Bush, C. J. Armstrong,          |
 | E. J. Higgins, E. L. Brown, M. S. McFly,        |
 | J. Wilkins, B-C. Shih, P. J. P. Byrne           |
 |                                                 |
 | Copyright (c) 2000 - 2017                       |
 |                                                 |
 |     Distributed under the terms of an           |
 |     Agreement between the United Kingdom        |
 |     Car-Parrinello (UKCP) Consortium,           |
 |     Daresbury Laboratory and Accelrys, Inc.     |
 |                                                 |
 | Please cite                                     |
 |                                                 |
 |     "First principles methods using CASTEP"     |
 |                                                 |
 |         Zeitschrift fuer Kristallographie       |
 |           220(5-6) pp. 567-570 (2005)           |
 |                                                 |
 | S. J. Clark, M. D. Segall, C. J. Pickard,       |
 | P. J. Hasnip, M. J. Probert, K. Refson,         |
 | M. C. Payne                                     |
 |                                                 |
 |       in all publications arising from          |
 |              your use of CASTEP                 |
 |                                                 |
 +-------------------------------------------------+


 Compiled for linux_x86_64_gfortran6.0-XT on Fri, 21 Jul 2017 10:20:05 +0100
 from code version 056e886bd5a1+ Castep172_branch Mon, 15 May 2017 14:45:35 +0100
 Compiler: GNU Fortran 6.3.0; Optimisation: fast
 MATHLIBS: Intel MKL(2017.0.0) (LAPACK version 3.6.0)
 FFT Lib : fftw3 version commercial-fftw-3.3.4-sse2-avx
 Fundamental constants values: CODATA 2010

 Run started: Thu, 19 Sep 2019 21:45:45 +0100

 Atomic calculation performed for Al: 1s2 2s2 2p6 3s2 3p1

 Converged in 55 iterations to an ae energy of -6578.725 eV

   ============================================================                
   | Pseudopotential Report - Date of generation 19-09-2019   |                
   ------------------------------------------------------------                
   | Element: Al Ionic charge:  3.00 Level of theory: LDA     |                
   | Atomic Solver: Koelling-Harmon                           |                
   |                                                          |                
   |               Reference Electronic Structure             |                
   |         Orbital         Occupation         Energy        |                
   |            3s              2.000           -0.288        |                
   |            3p              1.000           -0.102        |                
   |                                                          |                
   |                 Pseudopotential Definition               |                
   |        Beta     l      e      Rc     scheme   norm       |                
   |          1      0   -0.288   2.192     qc      0         |                
   |          2      0    0.250   2.192     qc      0         |                
   |          3      1   -0.102   2.192     qc      0         |                
   |          4      1    0.250   2.192     qc      0         |                
   |          5      2    0.000   2.000     qc      0         |                
   |          6      2    0.250   2.000     qc      0         |                
   |         loc     3    0.000   2.192     pn      0         |                
   |                                                          |                
   | Augmentation charge Rinner = 1.398                       |                
   | Partial core correction Rc = 1.398                       |                
   ------------------------------------------------------------                
   | "3|2.2|2.2|1.4|4|5|5|30:31:32U2U2"                       |                
   ------------------------------------------------------------                
   |      Author: Chris J. Pickard, Cambridge University      |                
   ============================================================                

 Atomic calculation performed for Ti: 1s2 2s2 2p6 3s2 3p6 3d2 4s2

 Converged in 78 iterations to an ae energy of -23176.516 eV

   ============================================================                
   | Pseudopotential Report - Date of generation 19-09-2019   |                
   ------------------------------------------------------------                
   | Element: Ti Ionic charge: 12.00 Level of theory: LDA     |                
   | Atomic Solver: Koelling-Harmon                           |                
   |                                                          |                
   |               Reference Electronic Structure             |                
   |         Orbital         Occupation         Energy        |                
   |            3s              2.000           -2.288        |                
   |            3p              6.000           -1.425        |                
   |            4s              2.000           -0.169        |                
   |            3d              2.000           -0.164        |                
   |                                                          |                
   |                 Pseudopotential Definition               |                
   |        Beta     l      e      Rc     scheme   norm       |                
   |          1      0   -2.288   1.793     qc      0         |                
   |          2      0   -0.169   1.793     qc      0         |                
   |          3      0    0.250   1.793     qc      0         |                
   |          4      1   -1.425   1.793     qc      0         |                
   |          5      1    0.250   1.793     qc      0         |                
   |          6      2   -0.164   1.793     qc      0         |                
   |          7      2    0.250   1.793     qc      0         |                
   |         loc     3    0.000   1.793     pn      0         |                
   |                                                          |                
   | Augmentation charge Rinner = 1.263                       |                
   | Partial core correction Rc = 1.263                       |                
   ------------------------------------------------------------                
   | "3|1.8|9|10|11|30U:40:31:32(qc=5.5)"                     |                
   ------------------------------------------------------------                
   |      Author: Chris J. Pickard, Cambridge University      |                
   ============================================================                

 Pseudo atomic calculation performed for Al 3s2 3p1

 Converged in 15 iterations to a total energy of -105.5952 eV


 Pseudo atomic calculation performed for Ti 3s2 3p6 3d2 4s2

 Converged in 31 iterations to a total energy of -1585.9998 eV

 Calculation parallelised over 48 processes.
 Data is distributed by k-point(48-way)

 ************************************ Title ************************************
 

 ***************************** General Parameters ******************************
  
 output verbosity                               : normal  (1)
 write checkpoint data to                       : castep.check
 type of calculation                            : single point energy
 stress calculation                             : on
 density difference calculation                 : off
 electron localisation func (ELF) calculation   : off
 Hirshfeld analysis                             : off
 unlimited duration calculation
 timing information                             : on
 memory usage estimate                          : on
 write final potential to formatted file        : off
 write final density to formatted file          : off
 write BibTeX reference list                    : on
 write OTFG pseudopotential files               : on
 write electrostatic potential file             : on
 write bands file                               : on
 checkpoint writing                             : off
  
 output         length unit                     : A
 output           mass unit                     : amu
 output           time unit                     : ps
 output         charge unit                     : e
 output           spin unit                     : hbar/2
 output         energy unit                     : eV
 output          force unit                     : eV/A
 output       velocity unit                     : A/ps
 output       pressure unit                     : GPa
 output     inv_length unit                     : 1/A
 output      frequency unit                     : cm-1
 output force constant unit                     : eV/A**2
 output         volume unit                     : A**3
 output   IR intensity unit                     : (D/A)**2/amu
 output         dipole unit                     : D
 output         efield unit                     : eV/A/e
 output        entropy unit                     : J/mol/K
  
 wavefunctions paging                           : none
 random number generator seed                   : randomised (214546174)
 data distribution                              : optimal for this architecture
 optimization strategy                          : balance speed and memory

 *********************** Exchange-Correlation Parameters ***********************
  
 using functional                               : Local Density Approximation
 relativistic treatment                         : Koelling-Harmon
 DFT+D: Semi-empirical dispersion correction    : off

 ************************* Pseudopotential Parameters **************************
  
 pseudopotential representation                 : reciprocal space
 <beta|phi> representation                      : reciprocal space
 spin-orbit coupling                            : off

 **************************** Basis Set Parameters *****************************
  
 plane wave basis set cut-off                   :   600.0000   eV
 size of standard grid                          :     1.7500
 size of   fine   gmax                          :    21.9610   1/A
 finite basis set correction                    : automatic
 number of sample energies                      :          3
           sample  spacing                      :     5.0000   eV

 **************************** Electronic Parameters ****************************
  
 number of  electrons                           :  21.00    
 net charge of system                           :  0.000    
 net spin   of system                           :  1.000    
 number of  up  spins                           :  11.00    
 number of down spins                           :  10.00    
 treating system as spin-polarized
 number of bands                                :         15

 ********************* Electronic Minimization Parameters **********************
  
 Method: Treating system as metallic with density mixing treatment of electrons,
         and number of  SD  steps               :          1
         and number of  CG  steps               :          4
  
 total energy / atom convergence tol.           : 0.1000E-04   eV
 eigen-energy convergence tolerance             : 0.1000E-05   eV
 max force / atom convergence tol.              : ignored
 convergence tolerance window                   :          3   cycles
 max. number of SCF cycles                      :        250
 number of fixed-spin iterations                :         10
 smearing scheme                                : Gaussian
 smearing width                                 : 0.1000       eV
 Fermi energy convergence tolerance             : 0.2721E-13   eV
 periodic dipole correction                     : NONE

 ************************** Density Mixing Parameters **************************
  
 density-mixing scheme                          : Pulay
 max. length of mixing history                  :         20
 charge density mixing amplitude                : 0.8000    
   spin density mixing amplitude                :  2.000    
 cut-off energy for mixing                      :  600.0       eV

 *********************** Population Analysis Parameters ************************
  
 Population analysis with cutoff                :  3.000       A

 *******************************************************************************
  

                           -------------------------------
                                      Unit Cell
                           -------------------------------
        Real Lattice(A)                      Reciprocal Lattice(1/A)
   5.0878870   0.0000000   0.0000000        1.2349302  -0.5868313   1.1558071
   2.1837200   4.5954290   0.0000000        0.0000000   1.3672685   1.1558065
  -3.6358040  -2.2977140   2.7180950        0.0000000   0.0000000   2.3116136

                       Lattice parameters(A)       Cell Angles
                    a =    5.087887          alpha =  135.610410
                    b =    5.087888          beta  =  135.610419
                    c =    5.087888          gamma =   64.583216

                       Current cell volume =   63.551843       A**3
                                   density =    2.026875   AMU/A**3
                                           =    3.365704     g/cm^3

                           -------------------------------
                                     Cell Contents
                           -------------------------------
                         Total number of ions in cell =    4
                      Total number of species in cell =    2
                        Max number of any one species =    3

            xxxxxxxxxxxxxxxxxxxxxxxxxxxxxxxxxxxxxxxxxxxxxxxxxxxxxxxxxxxx
            x  Element    Atom        Fractional coordinates of atoms  x
            x            Number           u          v          w      x
            x----------------------------------------------------------x
            x  Al           1         0.500000   0.500000   0.000000   x 
            x  Al           2         0.750000   0.250000   0.500000   x 
            x  Al           3         0.250000   0.750000   0.500000   x 
            x  Ti           1         0.000000   0.000000   0.000000   x 
            xxxxxxxxxxxxxxxxxxxxxxxxxxxxxxxxxxxxxxxxxxxxxxxxxxxxxxxxxxxx


                         No user defined ionic velocities

                           -------------------------------
                                   Details of Species
                           -------------------------------

                               Mass of species in AMU
                                    Al   26.9815400
                                    Ti   47.8670000

                          Electric Quadrupole Moment (Barn)
                                    Al    0.1466000 Isotope 27
                                    Ti    0.3020000 Isotope 47

                          Files used for pseudopotentials:
                                    Al 3|2.2|2.2|1.4|4|5|5|30:31:32U2U2
                                    Ti 3|1.8|9|10|11|30U:40:31:32(qc=5.5)

                           -------------------------------
                              k-Points For BZ Sampling
                           -------------------------------
                       MP grid size for SCF calculation is  8  8 10
                            with an offset of   0.000  0.000  0.000
                       Number of kpoints used =           320

                           -------------------------------
                               Symmetry and Constraints
                           -------------------------------

                      Maximum deviation from symmetry =  0.00000         ANG

                      Number of symmetry operations   =           1
                      Number of ionic constraints     =           3
                      Point group of crystal =     1: C1, 1, 1
                      Space group of crystal =   139: I4/mmm, -I 4 2

             Set iprint > 1 for details on symmetry rotations/translations

                         Centre of mass is constrained
             Set iprint > 1 for details of linear ionic constraints

                         Number of cell constraints= 0
                         Cell constraints are:  1 2 3 4 5 6

                         External pressure/stress (GPa)
                          0.00000   0.00000   0.00000
                                    0.00000   0.00000
                                              0.00000
  
+---------------- MEMORY AND SCRATCH DISK ESTIMATES PER PROCESS --------------+
|                                                     Memory          Disk    |
| Baseline code, static data and system overhead      172.0 MB         0.0 MB |
| BLAS internal memory storage                          0.0 MB         0.0 MB |
| Model and support data                               56.1 MB       132.3 MB |
| Electronic energy minimisation requirements          27.5 MB         0.0 MB |
| Force calculation requirements                       10.3 MB         0.0 MB |
| Stress calculation requirements                      10.3 MB         0.0 MB |
|                                               ----------------------------- |
| Approx. total storage required per process          255.5 MB       132.3 MB |
|                                                                             |
| Requirements will fluctuate during execution and may exceed these estimates |
+-----------------------------------------------------------------------------+
Calculating finite basis set correction with  3 cut-off energies.
Calculating total energy with cut-off of  590.000 eV.
------------------------------------------------------------------------ <-- SCF
SCF loop      Energy           Fermi           Energy gain       Timer   <-- SCF
                               energy          per atom          (sec)   <-- SCF
------------------------------------------------------------------------ <-- SCF
Initial  -1.36587070E+003  0.00000000E+000                        20.00  <-- SCF
      1  -1.87219244E+003  9.01123415E+000   1.26580435E+002      22.88  <-- SCF
      2  -1.92306299E+003  6.33681434E+000   1.27176378E+001      25.09  <-- SCF
      3  -1.92463487E+003  6.23596030E+000   3.92968249E-001      27.48  <-- SCF
      4  -1.92448027E+003  6.37940699E+000  -3.86480925E-002      30.84  <-- SCF
      5  -1.92450272E+003  6.11213212E+000   5.61278342E-003      34.06  <-- SCF
      6  -1.92446254E+003  6.29974080E+000  -1.00458263E-002      37.18  <-- SCF
      7  -1.92446278E+003  6.27840943E+000   5.91873137E-005      40.38  <-- SCF
      8  -1.92446312E+003  6.27542715E+000   8.58922551E-005      43.26  <-- SCF
      9  -1.92446313E+003  6.27522533E+000   2.77416988E-006      45.50  <-- SCF
     10  -1.92458766E+003  6.14026230E+000   3.11328271E-002      47.64  <-- SCF
     11  -1.92464222E+003  5.96584872E+000   1.36394334E-002      50.73  <-- SCF
     12  -1.92464403E+003  6.09568894E+000   4.52149505E-004      53.79  <-- SCF
     13  -1.92464626E+003  6.06243522E+000   5.56879026E-004      56.76  <-- SCF
     14  -1.92464841E+003  6.06270671E+000   5.37576225E-004      59.62  <-- SCF
     15  -1.92464848E+003  6.06302508E+000   1.72443709E-005      62.14  <-- SCF
     16  -1.92464848E+003  6.06346018E+000   9.00399406E-007      64.19  <-- SCF
     17  -1.92464848E+003  6.06356907E+000   1.94201767E-007      66.22  <-- SCF
------------------------------------------------------------------------ <-- SCF
 
Integrated Spin Density     =    0.194787E-03 hbar/2                        
Integrated |Spin Density|   =    0.665533E-03 hbar/2                        
 
Final energy, E             =  -1924.639145907     eV
Final free energy (E-TS)    =  -1924.648480786     eV
(energies not corrected for finite basis set)
 
NB est. 0K energy (E-0.5TS)      =  -1924.643813346     eV
 
Calculating total energy with cut-off of  595.000 eV.
------------------------------------------------------------------------ <-- SCF
SCF loop      Energy           Fermi           Energy gain       Timer   <-- SCF
                               energy          per atom          (sec)   <-- SCF
------------------------------------------------------------------------ <-- SCF
Initial  -1.92463915E+003  0.00000000E+000                        67.84  <-- SCF
      1  -1.92464850E+003  6.06338630E+000   2.33797941E-003      69.74  <-- SCF
      2  -1.92464850E+003  6.06338630E+000   1.33802010E-008      71.78  <-- SCF
      3  -1.92464850E+003  6.06371252E+000   2.31130754E-008      73.80  <-- SCF
      4  -1.92464850E+003  6.06348868E+000  -1.75529521E-008      75.83  <-- SCF
------------------------------------------------------------------------ <-- SCF
 
Integrated Spin Density     =    0.316053E-04 hbar/2                        
Integrated |Spin Density|   =    0.130787E-03 hbar/2                        
 
Final energy, E             =  -1924.639162509     eV
Final free energy (E-TS)    =  -1924.648497932     eV
(energies not corrected for finite basis set)
 
NB est. 0K energy (E-0.5TS)      =  -1924.643830220     eV
 
Calculating total energy with cut-off of  600.000 eV.
------------------------------------------------------------------------ <-- SCF
SCF loop      Energy           Fermi           Energy gain       Timer   <-- SCF
                               energy          per atom          (sec)   <-- SCF
------------------------------------------------------------------------ <-- SCF
Initial  -1.92463916E+003  0.00000000E+000                        77.44  <-- SCF
      1  -1.92464851E+003  6.06329463E+000   2.33780030E-003      79.32  <-- SCF
      2  -1.92464851E+003  6.06329462E+000   3.39752020E-009      81.35  <-- SCF
      3  -1.92464851E+003  6.06384866E+000   3.49311170E-008      83.38  <-- SCF
      4  -1.92464851E+003  6.06348320E+000  -5.10788120E-008      85.42  <-- SCF
------------------------------------------------------------------------ <-- SCF
 
Integrated Spin Density     =    0.114728E-04 hbar/2                        
Integrated |Spin Density|   =    0.398493E-04 hbar/2                        
 
Final energy, E             =  -1924.639178190     eV
Final free energy (E-TS)    =  -1924.648513651     eV
(energies not corrected for finite basis set)
 
NB est. 0K energy (E-0.5TS)      =  -1924.643845921     eV
 
 For future reference: finite basis dEtot/dlog(Ecut) =      -0.001935eV
 Total energy corrected for finite basis set =   -1924.648514 eV

 ******************* Unconstrained Forces *******************
 *                                                          *
 *               Cartesian components (eV/A)                *
 * -------------------------------------------------------- *
 *                         x            y            z      *
 *                                                          *
 * Al              1     -0.00000      0.00000     -0.00000 *
 * Al              2      0.00057     -0.00091      0.00000 *
 * Al              3     -0.00058      0.00091      0.00000 *
 * Ti              1      0.00000     -0.00000     -0.00000 *
 *                                                          *
 ************************************************************

 ******************** Constrained Forces ********************
 *                                                          *
 *               Cartesian components (eV/A)                *
 * -------------------------------------------------------- *
 *                         x            y            z      *
 *                                                          *
 * Al              1     -0.00000      0.00000     -0.00000 *
 * Al              2      0.00057     -0.00091      0.00000 *
 * Al              3     -0.00058      0.00091      0.00000 *
 * Ti              1      0.00000     -0.00000     -0.00000 *
 *                                                          *
 ************************************************************

 ***************** Stress Tensor *****************
 *                                               *
 *          Cartesian components (GPa)           *
 * --------------------------------------------- *
 *             x             y             z     *
 *                                               *
 *  x      4.872879     -0.231459     -0.064291  *
 *  y     -0.231459      5.092884     -0.040613  *
 *  z     -0.064291     -0.040613      5.393034  *
 *                                               *
 *  Pressure:   -5.1196                          *
 *                                               *
 *************************************************

 Pseudo atomic calculation performed for Al 3s2 3p1

 Converged in 15 iterations to a total energy of -105.5952 eV


 Pseudo atomic calculation performed for Ti 3s2 3p6 3d2 4s2

 Converged in 31 iterations to a total energy of -1585.9998 eV

Charge spilling parameter for spin component 1 = 0.49%
Charge spilling parameter for spin component 2 = 0.49%

     Atomic Populations (Mulliken)
     -----------------------------
Species          Ion     s      p      d      f     Total  Charge (e)  Spin (hbar/2)
==================================================================================
  Al              1     1.05   1.85   0.00   0.00   2.90     0.10       -0.00
  Al              2     1.01   2.06   0.00   0.00   3.07    -0.07        0.00
  Al              3     1.01   2.06   0.00   0.00   3.07    -0.07        0.00
  Ti              1     2.22   6.72   3.02   0.00  11.96     0.04        0.00
==================================================================================

                 Bond                   Population        Spin       Length (A)
================================================================================
              Al 1 -- Ti 1                   1.40        -0.00          2.71809
              Al 2 -- Al 3                   1.59         0.00          2.71809
================================================================================

 
 A BibTeX formatted list of references used in this run has been written to 
 castep.bib
 
Initialisation time =     12.49 s
Calculation time    =     87.30 s
Finalisation time   =      0.05 s
Total time          =     99.84 s
Peak Memory Use     = 806276 kB
  
Overall parallel efficiency rating: Very good (86%)                             
  
Data was distributed by:-
k-point (48-way); efficiency rating: Very good (86%)                            
  
Parallel notes:
1) Calculation only took 99.8 s, so efficiency estimates may be inaccurate.     
 +-------------------------------------------------+
 |                                                 |
 |      CCC   AA    SSS  TTTTT  EEEEE  PPPP        |
 |     C     A  A  S       T    E      P   P       |
 |     C     AAAA   SS     T    EEE    PPPP        |
 |     C     A  A     S    T    E      P           |
 |      CCC  A  A  SSS     T    EEEEE  P           |
 |                                                 |
 +-------------------------------------------------+
 |                                                 |
 | Welcome to Academic Release CASTEP version 17.21|          
 | Ab Initio Total Energy Program                  |
 |                                                 |
 | Authors:                                        |
 | M. Segall, M. Probert, C. Pickard, P. Hasnip,   |
 | S. Clark, K. Refson, J. R. Yates, M. Payne      |
 |                                                 |
 | Contributors:                                   |
 | P. Lindan, P. Haynes, J. White, V. Milman,      |
 | N. Govind, M. Gibson, P. Tulip, V. Cocula,      |
 | B. Montanari, D. Quigley, M. Glover,            |
 | L. Bernasconi, A. Perlov, M. Plummer,           |
 | E. McNellis, J. Meyer, J. Gale, D. Jochym       |
 | J. Aarons, B. Walker, R. Gillen, D. Jones       |
 | T. Green, I. J. Bush, C. J. Armstrong,          |
 | E. J. Higgins, E. L. Brown, M. S. McFly,        |
 | J. Wilkins, B-C. Shih, P. J. P. Byrne           |
 |                                                 |
 | Copyright (c) 2000 - 2017                       |
 |                                                 |
 |     Distributed under the terms of an           |
 |     Agreement between the United Kingdom        |
 |     Car-Parrinello (UKCP) Consortium,           |
 |     Daresbury Laboratory and Accelrys, Inc.     |
 |                                                 |
 | Please cite                                     |
 |                                                 |
 |     "First principles methods using CASTEP"     |
 |                                                 |
 |         Zeitschrift fuer Kristallographie       |
 |           220(5-6) pp. 567-570 (2005)           |
 |                                                 |
 | S. J. Clark, M. D. Segall, C. J. Pickard,       |
 | P. J. Hasnip, M. J. Probert, K. Refson,         |
 | M. C. Payne                                     |
 |                                                 |
 |       in all publications arising from          |
 |              your use of CASTEP                 |
 |                                                 |
 +-------------------------------------------------+


 Compiled for linux_x86_64_gfortran6.0-XT on Fri, 21 Jul 2017 10:20:05 +0100
 from code version 056e886bd5a1+ Castep172_branch Mon, 15 May 2017 14:45:35 +0100
 Compiler: GNU Fortran 6.3.0; Optimisation: fast
 MATHLIBS: Intel MKL(2017.0.0) (LAPACK version 3.6.0)
 FFT Lib : fftw3 version commercial-fftw-3.3.4-sse2-avx
 Fundamental constants values: CODATA 2010

 Run started: Thu, 19 Sep 2019 21:47:38 +0100

 Atomic calculation performed for Al: 1s2 2s2 2p6 3s2 3p1

 Converged in 55 iterations to an ae energy of -6578.725 eV

   ============================================================                
   | Pseudopotential Report - Date of generation 19-09-2019   |                
   ------------------------------------------------------------                
   | Element: Al Ionic charge:  3.00 Level of theory: LDA     |                
   | Atomic Solver: Koelling-Harmon                           |                
   |                                                          |                
   |               Reference Electronic Structure             |                
   |         Orbital         Occupation         Energy        |                
   |            3s              2.000           -0.288        |                
   |            3p              1.000           -0.102        |                
   |                                                          |                
   |                 Pseudopotential Definition               |                
   |        Beta     l      e      Rc     scheme   norm       |                
   |          1      0   -0.288   2.192     qc      0         |                
   |          2      0    0.250   2.192     qc      0         |                
   |          3      1   -0.102   2.192     qc      0         |                
   |          4      1    0.250   2.192     qc      0         |                
   |          5      2    0.000   2.000     qc      0         |                
   |          6      2    0.250   2.000     qc      0         |                
   |         loc     3    0.000   2.192     pn      0         |                
   |                                                          |                
   | Augmentation charge Rinner = 1.398                       |                
   | Partial core correction Rc = 1.398                       |                
   ------------------------------------------------------------                
   | "3|2.2|2.2|1.4|4|5|5|30:31:32U2U2"                       |                
   ------------------------------------------------------------                
   |      Author: Chris J. Pickard, Cambridge University      |                
   ============================================================                

 Atomic calculation performed for Ti: 1s2 2s2 2p6 3s2 3p6 3d2 4s2

 Converged in 78 iterations to an ae energy of -23176.516 eV

   ============================================================                
   | Pseudopotential Report - Date of generation 19-09-2019   |                
   ------------------------------------------------------------                
   | Element: Ti Ionic charge: 12.00 Level of theory: LDA     |                
   | Atomic Solver: Koelling-Harmon                           |                
   |                                                          |                
   |               Reference Electronic Structure             |                
   |         Orbital         Occupation         Energy        |                
   |            3s              2.000           -2.288        |                
   |            3p              6.000           -1.425        |                
   |            4s              2.000           -0.169        |                
   |            3d              2.000           -0.164        |                
   |                                                          |                
   |                 Pseudopotential Definition               |                
   |        Beta     l      e      Rc     scheme   norm       |                
   |          1      0   -2.288   1.793     qc      0         |                
   |          2      0   -0.169   1.793     qc      0         |                
   |          3      0    0.250   1.793     qc      0         |                
   |          4      1   -1.425   1.793     qc      0         |                
   |          5      1    0.250   1.793     qc      0         |                
   |          6      2   -0.164   1.793     qc      0         |                
   |          7      2    0.250   1.793     qc      0         |                
   |         loc     3    0.000   1.793     pn      0         |                
   |                                                          |                
   | Augmentation charge Rinner = 1.263                       |                
   | Partial core correction Rc = 1.263                       |                
   ------------------------------------------------------------                
   | "3|1.8|9|10|11|30U:40:31:32(qc=5.5)"                     |                
   ------------------------------------------------------------                
   |      Author: Chris J. Pickard, Cambridge University      |                
   ============================================================                

 Pseudo atomic calculation performed for Al 3s2 3p1

 Converged in 15 iterations to a total energy of -105.5952 eV


 Pseudo atomic calculation performed for Ti 3s2 3p6 3d2 4s2

 Converged in 31 iterations to a total energy of -1585.9998 eV

 Calculation parallelised over 48 processes.
 Data is distributed by k-point(48-way)

 ************************************ Title ************************************
 

 ***************************** General Parameters ******************************
  
 output verbosity                               : normal  (1)
 write checkpoint data to                       : castep.check
 type of calculation                            : single point energy
 stress calculation                             : on
 density difference calculation                 : off
 electron localisation func (ELF) calculation   : off
 Hirshfeld analysis                             : off
 unlimited duration calculation
 timing information                             : on
 memory usage estimate                          : on
 write final potential to formatted file        : off
 write final density to formatted file          : off
 write BibTeX reference list                    : on
 write OTFG pseudopotential files               : on
 write electrostatic potential file             : on
 write bands file                               : on
 checkpoint writing                             : off
  
 output         length unit                     : A
 output           mass unit                     : amu
 output           time unit                     : ps
 output         charge unit                     : e
 output           spin unit                     : hbar/2
 output         energy unit                     : eV
 output          force unit                     : eV/A
 output       velocity unit                     : A/ps
 output       pressure unit                     : GPa
 output     inv_length unit                     : 1/A
 output      frequency unit                     : cm-1
 output force constant unit                     : eV/A**2
 output         volume unit                     : A**3
 output   IR intensity unit                     : (D/A)**2/amu
 output         dipole unit                     : D
 output         efield unit                     : eV/A/e
 output        entropy unit                     : J/mol/K
  
 wavefunctions paging                           : none
 random number generator seed                   : randomised (214739183)
 data distribution                              : optimal for this architecture
 optimization strategy                          : maximize speed(+++)

 *********************** Exchange-Correlation Parameters ***********************
  
 using functional                               : Local Density Approximation
 relativistic treatment                         : Koelling-Harmon
 DFT+D: Semi-empirical dispersion correction    : off

 ************************* Pseudopotential Parameters **************************
  
 pseudopotential representation                 : reciprocal space
 <beta|phi> representation                      : reciprocal space
 spin-orbit coupling                            : off

 **************************** Basis Set Parameters *****************************
  
 plane wave basis set cut-off                   :   600.0000   eV
 size of standard grid                          :     1.7500
 size of   fine   gmax                          :    21.9610   1/A
 finite basis set correction                    : automatic
 number of sample energies                      :          3
           sample  spacing                      :     5.0000   eV

 **************************** Electronic Parameters ****************************
  
 number of  electrons                           :  21.00    
 net charge of system                           :  0.000    
 net spin   of system                           :  1.000    
 number of  up  spins                           :  11.00    
 number of down spins                           :  10.00    
 treating system as spin-polarized
 number of bands                                :         15

 ********************* Electronic Minimization Parameters **********************
  
 Method: Treating system as metallic with density mixing treatment of electrons,
         and number of  SD  steps               :          1
         and number of  CG  steps               :          4
  
 total energy / atom convergence tol.           : 0.1000E-04   eV
 eigen-energy convergence tolerance             : 0.1000E-05   eV
 max force / atom convergence tol.              : ignored
 convergence tolerance window                   :          3   cycles
 max. number of SCF cycles                      :        250
 number of fixed-spin iterations                :         10
 smearing scheme                                : Gaussian
 smearing width                                 : 0.1000       eV
 Fermi energy convergence tolerance             : 0.2721E-13   eV
 periodic dipole correction                     : NONE

 ************************** Density Mixing Parameters **************************
  
 density-mixing scheme                          : Pulay
 max. length of mixing history                  :         20
 charge density mixing amplitude                : 0.8000    
   spin density mixing amplitude                :  2.000    
 cut-off energy for mixing                      :  600.0       eV

 *********************** Population Analysis Parameters ************************
  
 Population analysis with cutoff                :  3.000       A

 *******************************************************************************
  

                           -------------------------------
                                      Unit Cell
                           -------------------------------
        Real Lattice(A)                      Reciprocal Lattice(1/A)
   5.1390210   0.0000000   0.0000000        1.2226425  -0.5809923   1.1443064
   2.2056670   4.6416140   0.0000000        0.0000000   1.3536639   1.1443064
  -3.6723440  -2.3208070   2.7454120        0.0000000   0.0000000   2.2886129

                       Lattice parameters(A)       Cell Angles
                    a =    5.139021          alpha =  135.610419
                    b =    5.139022          beta  =  135.610414
                    c =    5.139022          gamma =   64.583215

                       Current cell volume =   65.487278       A**3
                                   density =    1.966972   AMU/A**3
                                           =    3.266233     g/cm^3

                           -------------------------------
                                     Cell Contents
                           -------------------------------
                         Total number of ions in cell =    4
                      Total number of species in cell =    2
                        Max number of any one species =    3

            xxxxxxxxxxxxxxxxxxxxxxxxxxxxxxxxxxxxxxxxxxxxxxxxxxxxxxxxxxxx
            x  Element    Atom        Fractional coordinates of atoms  x
            x            Number           u          v          w      x
            x----------------------------------------------------------x
            x  Al           1         0.502359   0.504977   0.000000   x 
            x  Al           2         0.757648   0.254207   0.508415   x 
            x  Al           3         0.253652   0.759185   0.508415   x 
            x  Ti           1         0.000000   0.000000   0.000000   x 
            xxxxxxxxxxxxxxxxxxxxxxxxxxxxxxxxxxxxxxxxxxxxxxxxxxxxxxxxxxxx


                         No user defined ionic velocities

                           -------------------------------
                                   Details of Species
                           -------------------------------

                               Mass of species in AMU
                                    Al   26.9815400
                                    Ti   47.8670000

                          Electric Quadrupole Moment (Barn)
                                    Al    0.1466000 Isotope 27
                                    Ti    0.3020000 Isotope 47

                          Files used for pseudopotentials:
                                    Al 3|2.2|2.2|1.4|4|5|5|30:31:32U2U2
                                    Ti 3|1.8|9|10|11|30U:40:31:32(qc=5.5)

                           -------------------------------
                              k-Points For BZ Sampling
                           -------------------------------
                       MP grid size for SCF calculation is  8  8 10
                            with an offset of   0.000  0.000  0.000
                       Number of kpoints used =           320

                           -------------------------------
                               Symmetry and Constraints
                           -------------------------------

                      Maximum deviation from symmetry =  0.00000         ANG

                      Number of symmetry operations   =           1
                      Number of ionic constraints     =           3
                      Point group of crystal =     1: C1, 1, 1
                      Space group of crystal =     1: P1, P 1

             Set iprint > 1 for details on symmetry rotations/translations

                         Centre of mass is constrained
             Set iprint > 1 for details of linear ionic constraints

                         Number of cell constraints= 0
                         Cell constraints are:  1 2 3 4 5 6

                         External pressure/stress (GPa)
                          0.00000   0.00000   0.00000
                                    0.00000   0.00000
                                              0.00000
  
+---------------- MEMORY AND SCRATCH DISK ESTIMATES PER PROCESS --------------+
|                                                     Memory          Disk    |
| Baseline code, static data and system overhead      172.0 MB         0.0 MB |
| BLAS internal memory storage                          0.0 MB         0.0 MB |
| Model and support data                              188.3 MB         0.0 MB |
| Electronic energy minimisation requirements          28.1 MB         0.0 MB |
| Force calculation requirements                       10.3 MB         0.0 MB |
| Stress calculation requirements                      10.3 MB         0.0 MB |
|                                               ----------------------------- |
| Approx. total storage required per process          388.5 MB         0.0 MB |
|                                                                             |
| Requirements will fluctuate during execution and may exceed these estimates |
+-----------------------------------------------------------------------------+
Calculating finite basis set correction with  3 cut-off energies.
Calculating total energy with cut-off of  590.000 eV.
------------------------------------------------------------------------ <-- SCF
SCF loop      Energy           Fermi           Energy gain       Timer   <-- SCF
                               energy          per atom          (sec)   <-- SCF
------------------------------------------------------------------------ <-- SCF
Initial  -1.36475367E+003  0.00000000E+000                        19.79  <-- SCF
      1  -1.87220963E+003  8.87646306E+000   1.26863990E+002      22.64  <-- SCF
      2  -1.92291699E+003  6.12176312E+000   1.26768385E+001      24.84  <-- SCF
      3  -1.92455515E+003  6.00123656E+000   4.09541610E-001      27.23  <-- SCF
      4  -1.92440300E+003  6.12163838E+000  -3.80378019E-002      30.51  <-- SCF
      5  -1.92442371E+003  5.87782797E+000   5.17768953E-003      33.73  <-- SCF
      6  -1.92438882E+003  6.05667290E+000  -8.72335304E-003      36.83  <-- SCF
      7  -1.92438896E+003  6.03382218E+000   3.61518266E-005      40.04  <-- SCF
      8  -1.92438930E+003  6.03075528E+000   8.49534547E-005      42.95  <-- SCF
      9  -1.92438931E+003  6.03052828E+000   2.86270040E-006      45.17  <-- SCF
     10  -1.92450611E+003  5.90263665E+000   2.91991113E-002      47.33  <-- SCF
     11  -1.92456093E+003  5.72288449E+000   1.37043500E-002      50.40  <-- SCF
     12  -1.92456126E+003  5.85616088E+000   8.40734034E-005      53.44  <-- SCF
     13  -1.92456396E+003  5.82255698E+000   6.73573316E-004      56.36  <-- SCF
     14  -1.92456628E+003  5.82263580E+000   5.80795941E-004      59.25  <-- SCF
     15  -1.92456636E+003  5.82296070E+000   2.04559285E-005      61.84  <-- SCF
     16  -1.92456637E+003  5.82347462E+000   1.10440926E-006      63.90  <-- SCF
     17  -1.92456637E+003  5.82358598E+000   2.38880840E-007      65.94  <-- SCF
------------------------------------------------------------------------ <-- SCF
 
Integrated Spin Density     =    0.208046E-03 hbar/2                        
Integrated |Spin Density|   =    0.696433E-03 hbar/2                        
 
Final energy, E             =  -1924.556860949     eV
Final free energy (E-TS)    =  -1924.566369282     eV
(energies not corrected for finite basis set)
 
NB est. 0K energy (E-0.5TS)      =  -1924.561615116     eV
 
Calculating total energy with cut-off of  595.000 eV.
------------------------------------------------------------------------ <-- SCF
SCF loop      Energy           Fermi           Energy gain       Timer   <-- SCF
                               energy          per atom          (sec)   <-- SCF
------------------------------------------------------------------------ <-- SCF
Initial  -1.92455686E+003  0.00000000E+000                        67.56  <-- SCF
      1  -1.92456639E+003  5.82331871E+000   2.38134717E-003      69.40  <-- SCF
      2  -1.92456639E+003  5.82331871E+000   1.48206474E-008      71.44  <-- SCF
      3  -1.92456639E+003  5.82384022E+000   4.68486364E-008      73.47  <-- SCF
      4  -1.92456639E+003  5.82348263E+000  -4.85370524E-008      75.49  <-- SCF
------------------------------------------------------------------------ <-- SCF
 
Integrated Spin Density     =    0.541396E-04 hbar/2                        
Integrated |Spin Density|   =    0.183702E-03 hbar/2                        
 
Final energy, E             =  -1924.556877339     eV
Final free energy (E-TS)    =  -1924.566386418     eV
(energies not corrected for finite basis set)
 
NB est. 0K energy (E-0.5TS)      =  -1924.561631879     eV
 
Calculating total energy with cut-off of  600.000 eV.
------------------------------------------------------------------------ <-- SCF
SCF loop      Energy           Fermi           Energy gain       Timer   <-- SCF
                               energy          per atom          (sec)   <-- SCF
------------------------------------------------------------------------ <-- SCF
Initial  -1.92455688E+003  0.00000000E+000                        77.12  <-- SCF
      1  -1.92456640E+003  5.82313432E+000   2.38134279E-003      78.96  <-- SCF
      2  -1.92456640E+003  5.82313432E+000   6.70426326E-009      81.01  <-- SCF
      3  -1.92456640E+003  5.82417567E+000   1.31862724E-007      83.05  <-- SCF
      4  -1.92456640E+003  5.82347847E+000  -1.88932440E-007      85.08  <-- SCF
------------------------------------------------------------------------ <-- SCF
 
Integrated Spin Density     =    0.127459E-04 hbar/2                        
Integrated |Spin Density|   =    0.451835E-04 hbar/2                        
 
Final energy, E             =  -1924.556893372     eV
Final free energy (E-TS)    =  -1924.566402480     eV
(energies not corrected for finite basis set)
 
NB est. 0K energy (E-0.5TS)      =  -1924.561647926     eV
 
 For future reference: finite basis dEtot/dlog(Ecut) =      -0.001965eV
 Total energy corrected for finite basis set =   -1924.566402 eV

 ******************* Unconstrained Forces *******************
 *                                                          *
 *               Cartesian components (eV/A)                *
 * -------------------------------------------------------- *
 *                         x            y            z      *
 *                                                          *
 * Al              1     -0.01365     -0.06068      0.03766 *
 * Al              2     -0.07251      0.08068     -0.05230 *
 * Al              3      0.02396     -0.11268     -0.05229 *
 * Ti              1      0.06220      0.09268      0.06693 *
 *                                                          *
 ************************************************************

 ******************** Constrained Forces ********************
 *                                                          *
 *               Cartesian components (eV/A)                *
 * -------------------------------------------------------- *
 *                         x            y            z      *
 *                                                          *
 * Al              1     -0.01365     -0.06068      0.03766 *
 * Al              2     -0.07251      0.08068     -0.05230 *
 * Al              3      0.02396     -0.11268     -0.05229 *
 * Ti              1      0.06220      0.09268      0.06693 *
 *                                                          *
 ************************************************************

 ***************** Stress Tensor *****************
 *                                               *
 *          Cartesian components (GPa)           *
 * --------------------------------------------- *
 *             x             y             z     *
 *                                               *
 *  x      7.476526     -0.290646     -0.160308  *
 *  y     -0.290646      7.748169     -0.108791  *
 *  z     -0.160308     -0.108791      8.105835  *
 *                                               *
 *  Pressure:   -7.7768                          *
 *                                               *
 *************************************************

 Pseudo atomic calculation performed for Al 3s2 3p1

 Converged in 15 iterations to a total energy of -105.5952 eV


 Pseudo atomic calculation performed for Ti 3s2 3p6 3d2 4s2

 Converged in 31 iterations to a total energy of -1585.9998 eV

Charge spilling parameter for spin component 1 = 0.48%
Charge spilling parameter for spin component 2 = 0.48%

     Atomic Populations (Mulliken)
     -----------------------------
Species          Ion     s      p      d      f     Total  Charge (e)  Spin (hbar/2)
==================================================================================
  Al              1     1.07   1.83   0.00   0.00   2.90     0.10        0.00
  Al              2     1.03   2.04   0.00   0.00   3.07    -0.07       -0.00
  Al              3     1.03   2.04   0.00   0.00   3.07    -0.07       -0.00
  Ti              1     2.24   6.72   3.00   0.00  11.96     0.04        0.00
==================================================================================

                 Bond                   Population        Spin       Length (A)
================================================================================
              Al 2 -- Al 3                   1.55        -0.00          2.72078
              Al 1 -- Ti 1                   1.40         0.00          2.73841
================================================================================

 
 A BibTeX formatted list of references used in this run has been written to 
 castep.bib
 
Initialisation time =     12.45 s
Calculation time    =     87.07 s
Finalisation time   =      0.07 s
Total time          =     99.59 s
Peak Memory Use     = 776600 kB
  
Overall parallel efficiency rating: Very good (86%)                             
  
Data was distributed by:-
k-point (48-way); efficiency rating: Very good (87%)                            
  
Parallel notes:
1) Calculation only took 99.5 s, so efficiency estimates may be inaccurate.     
