2
Lattice="2.9325612778377246 -4.609940540129732e-12 5.838852854282124e-12 -1.466280638922854 2.539672565516365 -4.760680645731409e-13 9.272098332600019e-12 4.4802993801364695e-12 4.582638021049414" Properties=species:S:1:pos:R:3 energy=-3187.24232729 pbc="T T T" n_minim_iter=0
Ti       0.00000000      -0.00000000      -0.00000000 
Ti       0.00000000       1.69311504       2.29131901 
