2
Lattice="3.1080452548142636 -4.885798611952811e-12 6.188248833692222e-12 -1.5540226274113622 2.6916461475803115 -5.045558980292307e-13 9.826939147903258e-12 4.748399746602325e-12 4.85686231469166" Properties=species:S:1:pos:R:3 energy=-3186.66573903 pbc="T T T" n_minim_iter=0
Ti       0.00000000      -0.00000000      -0.00000000 
Ti       0.00000000       1.79443076       2.42843116 
