2
Lattice="3.0660394939953846 -4.819766211818031e-12 6.104613597045285e-12 -1.5330197470018658 2.6552680915950644 -4.97736739157737e-13 9.694126392107921e-12 4.684224315527361e-12 4.791220993541284" Properties=species:S:1:pos:R:3 energy=-3186.85326568 pbc="T T T" n_minim_iter=0
Ti       0.00000000      -0.00000000      -0.00000000 
Ti       0.00000000       1.77017872       2.39561050 
