2
Lattice="2.861006654645021 -4.497457789715402e-12 5.6963845897574504e-12 -1.4305033273264047 2.477704444054855 -4.644519830160224e-13 9.045858728534837e-12 4.370979879685128e-12 4.470821453292465" Properties=species:S:1:pos:R:3 energy=-3187.26875739 pbc="T T T" n_minim_iter=0
Ti       0.00000000      -0.00000000      -0.00000000 
Ti       0.00000000       1.65180296       2.23541073 
