2
Lattice="2.9783899501133653 -4.681982497384099e-12 5.9300996684397075e-12 -1.4891949750607367 2.5793613599405703 -4.835078297630802e-13 9.41699827348226e-12 4.550315367028455e-12 4.654253307526707" Properties=species:S:1:pos:R:3 energy=-3187.15161072 pbc="T T T" n_minim_iter=0
Ti       0.00000000      -0.00000000      -0.00000000 
Ti       0.00000000       1.71957424       2.32712665 
