2
Lattice="2.8852536298218148 -4.535573656104198e-12 5.744661337216627e-12 -1.4426268149148347 2.498702940529126 -4.68388204445189e-13 9.122522203500008e-12 4.408023848271821e-12 4.5087115772535045" Properties=species:S:1:pos:R:3 energy=-3187.27699959 pbc="T T T" n_minim_iter=0
Ti       0.00000000      -0.00000000      -0.00000000 
Ti       0.00000000       1.66580196       2.25435579 
