2
Lattice="2.785681751487823 -4.379048218065549e-12 5.546409539237035e-12 -1.392840875747703 2.412471164363743 -4.5222383926632137e-13 8.807698348308416e-12 4.2559002325948996e-12 4.3531131660867635" Properties=species:S:1:pos:R:3 energy=-3187.12603743 pbc="T T T" n_minim_iter=0
Ti       0.00000000      -0.00000000      -0.00000000 
Ti       0.00000000       1.60831411       2.17655658 
