2
Lattice="2.8852536298218148 -4.535573656104198e-12 5.744661337216627e-12 -1.4426268149148347 2.498702940529126 -4.68388204445189e-13 9.122522203500008e-12 4.408023848271821e-12 4.5087115772535045" Properties=species:S:1:pos:R:3 stress="-0.0023699710644560917 7.974626559912764e-13 -1.6014704457521223e-12 7.974626559912764e-13 -0.002369971250514474 -5.56285190241257e-13 -1.6014704457521223e-12 -5.56285190241257e-13 0.007879039719615101" pbc="T T T" n_minim_iter=3
Ti       0.00000000      -0.00000000      -0.00000000 
Ti       0.00000000       1.66580196       2.25435579 
