2
Lattice="2.8363415768187923 -4.4586846724898946e-12 5.647275382336915e-12 -1.4181707884132568 2.456343860064676 -4.604478873635228e-13 8.967873307151026e-12 4.333297143528511e-12 4.432277971083643" Properties=species:S:1:pos:R:3 energy=-3187.24162659 pbc="T T T" n_minim_iter=0
Ti       0.00000000      -0.00000000      -0.00000000 
Ti       0.00000000       1.63756257       2.21613899 
