2
Lattice="3.0007847003970713 -4.717186695161361e-12 5.974688558228011e-12 -1.5003923502026204 2.5987557826034293 -4.871433634873827e-13 9.487805430466087e-12 4.584529549208607e-12 4.689249007325925" Properties=species:S:1:pos:R:3 energy=-3187.08960356 pbc="T T T" n_minim_iter=0
Ti       0.00000000      -0.00000000      -0.00000000 
Ti       0.00000000       1.73250385       2.34462450 
