2
Lattice="2.6502360888699523 -4.166129751261252e-12 5.276731527816381e-12 -1.325118044438583 2.29517177966941 -4.3023577206219437e-13 8.379449666172418e-12 4.048969477948756e-12 4.141455715656078" Properties=species:S:1:pos:R:3 energy=-3186.5810778 pbc="T T T" n_minim_iter=0
Ti       0.00000000      -0.00000000      -0.00000000 
Ti       0.00000000       1.53011452       2.07072786 
