2
Lattice="3.0228500862148904 -4.751873137140902e-12 6.0186216695109246e-12 -1.51142504311156 2.6178649672716414 -4.907254286260503e-13 9.557571211183355e-12 4.618240535965869e-12 4.723730017752557" Properties=species:S:1:pos:R:3 energy=-3187.01834556 pbc="T T T" n_minim_iter=0
Ti       0.00000000      -0.00000000      -0.00000000 
Ti       0.00000000       1.74524331       2.36186501 
