2
Lattice="2.6214268931464493 -4.120842145406948e-12 5.2193712073514745e-12 -1.3107134465767925 2.2702222843028483 -4.255589258685116e-13 8.288361477274147e-12 4.0049554541949505e-12 4.096436327084009" Properties=species:S:1:pos:R:3 energy=-3186.52746517 pbc="T T T" n_minim_iter=0
Ti       0.00000000      -0.00000000      -0.00000000 
Ti       0.00000000       1.51348152       2.04821816 
