2
Lattice="2.8112398924435924 -4.419225216586523e-12 5.597296872912726e-12 -1.4056199462256227 2.434605163711517 -4.563729135894578e-13 8.888507434185414e-12 4.294947369971686e-12 4.393052215059547" Properties=species:S:1:pos:R:3 energy=-3187.19434676 pbc="T T T" n_minim_iter=0
Ti       0.00000000      -0.00000000      -0.00000000 
Ti       0.00000000       1.62307011       2.19652611 
