2
Lattice="2.6784322060643344 -4.2104536072403064e-12 5.332871183142349e-12 -1.3392161030358125 2.319590333455081 -4.3481309190974564e-13 8.468599438830057e-12 4.0920468544874624e-12 4.185517062192105" Properties=species:S:1:pos:R:3 energy=-3186.68755811 pbc="T T T" n_minim_iter=0
Ti       0.00000000      -0.00000000      -0.00000000 
Ti       0.00000000       1.54639355       2.09275853 
