2
Lattice="2.7596458193466864 -4.338120139261347e-12 5.494570903214308e-12 -1.3798229096770993 2.389923385711614 -4.4799720096298546e-13 8.725378594304326e-12 4.216123136881756e-12 4.312427485127555" Properties=species:S:1:pos:R:3 energy=-3187.03662616 pbc="T T T" n_minim_iter=0
Ti       0.00000000      -0.00000000      -0.00000000 
Ti       0.00000000       1.59328225       2.15621374 
