2
Lattice="2.7331091197555573 -4.296404861844675e-12 5.4417352181352445e-12 -1.3665545598814985 2.366941929726274 -4.4368926874346756e-13 8.641475526398774e-12 4.175580980225897e-12 4.270959267764629" Properties=species:S:1:pos:R:3 energy=-3186.92883085 pbc="T T T" n_minim_iter=0
Ti       0.00000000      -0.00000000      -0.00000000 
Ti       0.00000000       1.57796128       2.13547963 
