2
Lattice="3.087185262164294 -4.853007029212277e-12 6.146715710908038e-12 -1.5435926310863493 2.6735808640173158 -5.011695148007093e-13 9.760984548921974e-12 4.716530331683153e-12 4.824264941140084" Properties=species:S:1:pos:R:3 energy=-3186.76182581 pbc="T T T" n_minim_iter=0
Ti       0.00000000      -0.00000000      -0.00000000 
Ti       0.00000000       1.78238724       2.41213247 
