2
Lattice="2.9556532622831804 -4.646240779122741e-12 5.884829966613704e-12 -1.4778266311456134 2.559670810675865 -4.79816786356103e-13 9.345109986982568e-12 4.5155787805633144e-12 4.618723270725511" Properties=species:S:1:pos:R:3 energy=-3187.20305658 pbc="T T T" n_minim_iter=0
Ti       0.00000000      -0.00000000      -0.00000000 
Ti       0.00000000       1.70644720       2.30936164 
