2
Lattice="2.8587862301628295 -9.09167738607401e-16 4.871274601458843e-41 -1.4293931150814139 2.4757814993101563 2.469621771666865e-25 2.2818377947189884e-40 4.52845765986692e-25 4.52814610376619" Properties=species:S:1:pos:R:3 energy=-3187.21263876 pbc="T T T" n_minim_iter=1
Ti       0.00000000       0.00000000       0.00000000 
Ti      -0.00000143       1.65052182       2.26407305 
2
Lattice="2.858552206308399 -1.0252673706718689e-07 2.0747088210250962e-16 -1.4292761919449566 2.475578778083426 -1.6916537497712717e-16 3.2862144658640805e-16 -1.1966980949635616e-16 4.5431501089169615" Properties=species:S:1:pos:R:3 stress="0.00303260822581333 7.577860024915298e-08 3.254419665029966e-16 7.577860024915298e-08 0.0030326951814790967 6.322576783291856e-16 3.254419665029966e-16 6.322576783291856e-16 -0.005596412894631092" pbc="T T T" n_minim_iter=2
Ti      -0.00000009       0.00000005      -0.00000000 
Ti      -0.00000140       1.65038659       2.27157505 
