2
Lattice="3.079282018268996 -1.1044357949666263e-07 2.2349123278658097e-16 -1.5396411047814418 2.6667363987048383 -1.822278761014872e-16 3.539967222071086e-16 -1.2891039446422831e-16 4.893960098336416" Properties=species:S:1:pos:R:3 energy=-3186.67638676 pbc="T T T" n_minim_iter=0
Ti      -0.00000010       0.00000006      -0.00000000 
Ti      -0.00000151       1.77782506       2.44698005 
