2
Lattice="2.7599018105317614 -9.898847627662148e-08 2.0031093428473918e-16 -1.3799509909924141 2.3901450309945242 -1.6332737378324712e-16 3.172805182329229e-16 -1.1553993072650984e-16 4.386363202829237" Properties=species:S:1:pos:R:3 energy=-3186.97779422 pbc="T T T" n_minim_iter=0
Ti      -0.00000009       0.00000005      -0.00000000 
Ti      -0.00000135       1.59343073       2.19318160 
