2
Lattice="2.7852234250557393 -9.989667816591608e-08 2.0214875193591088e-16 -1.392611799040929 2.412074191988691 -1.64825873760446e-16 3.2019151127912623e-16 -1.1659998930425327e-16 4.426607315051042" Properties=species:S:1:pos:R:3 energy=-3187.08929677 pbc="T T T" n_minim_iter=0
Ti      -0.00000009       0.00000005      -0.00000000 
Ti      -0.00000136       1.60805018       2.21330366 
