2
Lattice="2.858552206308399 -1.0252673706718689e-07 2.0747088210250962e-16 -1.4292761919449566 2.475578778083426 -1.6916537497712717e-16 3.2862144658640805e-16 -1.1966980949635616e-16 4.5431501089169615" Properties=species:S:1:pos:R:3 energy=-3187.21349347 pbc="T T T" n_minim_iter=0
Ti      -0.00000009       0.00000005      -0.00000000 
Ti      -0.00000140       1.65038659       2.27157505 
