2
Lattice="3.0586150732916733 -1.0970232508507767e-07 2.2199124643147899e-16 -1.5293076316508352 2.648838299701864 -1.8100483337062328e-16 3.516208336926426e-16 -1.2804519796270916e-16 4.861113738869027" Properties=species:S:1:pos:R:3 energy=-3186.74458235 pbc="T T T" n_minim_iter=0
Ti      -0.00000010       0.00000006      -0.00000000 
Ti      -0.00000150       1.76589299       2.43055687 
