2
Lattice="2.9948752837450727 -1.0741619134606801e-07 2.1736507576610586e-16 -1.4974377348976853 2.5936380238514376 -1.7723279612190054e-16 3.4429325653673415e-16 -1.2537680923937355e-16 4.759810907602932" Properties=species:S:1:pos:R:3 energy=-3186.95197025 pbc="T T T" n_minim_iter=0
Ti      -0.00000010       0.00000005      -0.00000000 
Ti      -0.00000147       1.72909279       2.37990545 
