2
Lattice="2.7078157093736497 -9.712032148605737e-08 1.9653057675664994e-16 -1.3539079387954887 2.345037145129935 -1.6024498654747664e-16 3.112926584093902e-16 -1.133594094859869e-16 4.303581794944743" Properties=species:S:1:pos:R:3 energy=-3186.61055876 pbc="T T T" n_minim_iter=0
Ti      -0.00000009       0.00000005      -0.00000000 
Ti      -0.00000132       1.56335879       2.15179090 
