2
Lattice="2.950826601566087 -1.0583631197708028e-07 2.14168066130613e-16 -1.4754133924399766 2.5554907468612917 -1.7462605281260848e-16 3.392293848236556e-16 -1.2353276476354e-16 4.689803518968408" Properties=species:S:1:pos:R:3 energy=-3187.0784675 pbc="T T T" n_minim_iter=0
Ti      -0.00000009       0.00000005      -0.00000000 
Ti      -0.00000144       1.70366126       2.34490176 
