2
Lattice="2.8100928072518605 -1.0078865998937837e-07 2.0395374701355443e-16 -1.4050464909114686 2.433611708306531 -1.662976112208891e-16 3.230505153354328e-16 -1.1764111572592018e-16 4.466132686035579" Properties=species:S:1:pos:R:3 energy=-3187.16194378 pbc="T T T" n_minim_iter=0
Ti      -0.00000009       0.00000005      -0.00000000 
Ti      -0.00000137       1.62240853       2.23306634 
