2
Lattice="2.8821776760905355 -1.0337410389963318e-07 2.0918559525169367e-16 -1.4410889275698662 2.4960390346727017 -1.7056349933038754e-16 3.313374494772965e-16 -1.2065886103854976e-16 4.580698506800708" Properties=species:S:1:pos:R:3 energy=-3187.20288507 pbc="T T T" n_minim_iter=0
Ti      -0.00000009       0.00000005      -0.00000000 
Ti      -0.00000141       1.66402676       2.29034925 
