2
Lattice="2.6655672805230273 -3.906683059720055e-07 8.294067523281943e-16 -1.3327839785901894 2.3084487875327784 1.4845135965633017e-15 1.311778223190464e-15 3.4877539934307115e-15 4.310464264012412" Properties=species:S:1:pos:R:3 stress="-0.35788602217933346 3.911638410059138e-08 1.8505722642228476e-16 3.911638410059138e-08 -0.3578859772934231 -2.488576591400578e-16 1.8505722642228476e-16 -2.488576591400578e-16 -0.3586574467076938" pbc="T T T" n_minim_iter=0
Ti      -0.00000009       0.00000005      -0.00000000 
Ti      -0.00000147       1.53896644       2.15523213 
