2
Lattice="2.905422048256918 -1.0420780203120316e-07 2.1087264871415478e-16 -1.4527111143750613 2.5161692510521614 -1.7193907082597063e-16 3.340096410816521e-16 -1.2163195839282396e-16 4.617641219166205" Properties=species:S:1:pos:R:3 energy=-3187.17425895 pbc="T T T" n_minim_iter=0
Ti      -0.00000009       0.00000005      -0.00000000 
Ti      -0.00000142       1.67744691       2.30882061 
