2
Lattice="2.9283003291824934 -1.0502836969053406e-07 2.125331316376932e-16 -1.4641502555484813 2.5359824231234622 -1.7329297752148804e-16 3.3663974654433384e-16 -1.2258972978280442e-16 4.654002095923845" Properties=species:S:1:pos:R:3 energy=-3187.13162791 pbc="T T T" n_minim_iter=0
Ti      -0.00000009       0.00000005      -0.00000000 
Ti      -0.00000143       1.69065570       2.32700105 
