2
Lattice="3.0376649974894794 -1.0895091571477862e-07 2.2047071072210713e-16 -1.5188325930989988 2.630695002216971 -1.7976503532843387e-16 3.492123962322322e-16 -1.271681485337535e-16 4.827817394323523" Properties=species:S:1:pos:R:3 energy=-3186.81374007 pbc="T T T" n_minim_iter=0
Ti      -0.00000010       0.00000006      -0.00000000 
Ti      -0.00000149       1.75379745       2.41390870 
