2
Lattice="2.734106826515074 -9.806329620186376e-08 1.9843875994559227e-16 -1.3670534981828408 2.367805920002677 -1.618008604195653e-16 3.143151062514554e-16 -1.144600551110055e-16 4.345366755681515" Properties=species:S:1:pos:R:3 energy=-3186.81986202 pbc="T T T" n_minim_iter=0
Ti      -0.00000009       0.00000005      -0.00000000 
Ti      -0.00000134       1.57853798       2.17268338 
