2
Lattice="2.83452962345068 -1.0166512711271669e-07 2.0572734688042317e-16 -1.417264899769921 2.4547746114895546 -1.6774374999225652e-16 3.2585979125892307e-16 -1.1866413329850696e-16 4.50497057184723" Properties=species:S:1:pos:R:3 energy=-3187.20153054 pbc="T T T" n_minim_iter=0
Ti      -0.00000009       0.00000005      -0.00000000 
Ti      -0.00000139       1.63651714       2.25248528 
