2
Lattice="2.610591383037036 -3.8261098140283216e-07 8.123006822907362e-16 -1.305296022869346 2.2608382676924537 1.4538962987379735e-15 1.2847234999240815e-15 3.415820935353266e-15 4.221563247246901" Properties=species:S:1:pos:R:3 energy=-3185.68381471 pbc="T T T" n_minim_iter=0
Ti      -0.00000008       0.00000005      -0.00000000 
Ti      -0.00000144       1.50722609       2.11078162 
