2
Lattice="2.7963357036351892 -4.9571916449835605e-14 -2.556515962511031e-13 -1.3981678518176373 2.4216977571902865 5.77513171370182e-14 -4.059747348467519e-13 -1.2849308498748035e-13 4.406572356335393" Properties=species:S:1:pos:R:3 energy=-3187.18899918 pbc="T T T" n_minim_iter=0
Ti       0.00000000      -0.00000000       0.00000000 
Ti      -0.00000000       1.61446517       2.20328618 
