2
Lattice="2.7186191523698864 -4.819419975398799e-14 -2.4854645491908175e-13 -1.3593095761849845 2.3543932494907693 5.614627622827351e-14 -3.9469177041150194e-13 -1.2492196889663158e-13 4.284103653457477" Properties=species:S:1:pos:R:3 energy=-3186.90660037 pbc="T T T" n_minim_iter=0
Ti       0.00000000      -0.00000000       0.00000000 
Ti      -0.00000000       1.56959550       2.14205183 
