2
Lattice="2.664232116126442 -4.723005599502896e-14 -2.435741861700442e-13 -1.3321160580632616 2.3072926944609295 5.5023048078608035e-14 -3.8679580763803035e-13 -1.2242285619669313e-13 4.198398489323636" Properties=species:S:1:pos:R:3 energy=-3186.5747627 pbc="T T T" n_minim_iter=0
Ti       0.00000000      -0.00000000       0.00000000 
Ti      -0.00000000       1.53819513       2.09919924 
