2
Lattice="2.8699570466399305 -5.087703552391936e-14 -2.6238233814051373e-13 -1.4349785233200085 2.485455710501881 5.927178176592266e-14 -4.1666315296713595e-13 -1.3187602412147021e-13 4.5225876739881485" Properties=species:S:1:pos:R:3 energy=-3187.2738158 pbc="T T T" n_minim_iter=0
Ti       0.00000000      -0.00000000       0.00000000 
Ti      -0.00000000       1.65697047       2.26129384 
