2
Lattice="3.028456587041755 -5.3686829056191773e-14 -2.76872966163507e-13 -1.514228293520923 2.6227203389968814 6.254519318498721e-14 -4.396742702676492e-13 -1.3915916072372173e-13 4.772357289388253" Properties=species:S:1:pos:R:3 energy=-3186.96103575 pbc="T T T" n_minim_iter=0
Ti       0.00000000      -0.00000000       0.00000000 
Ti      -0.00000000       1.74848022       2.38617864 
