2
Lattice="2.962599591460282 -5.251935210470917e-14 -2.708520703094011e-13 -1.4812997957301854 2.565686507798569 6.118508172463122e-14 -4.3011308765132906e-13 -1.3613299740603792e-13 4.668577326266028" Properties=species:S:1:pos:R:3 energy=-3187.15967526 pbc="T T T" n_minim_iter=0
Ti       0.00000000      -0.00000000       0.00000000 
Ti      -0.00000000       1.71045767       2.33428866 
