2
Lattice="2.9848756127847698 -5.2914249279070864e-14 -2.7288862851030867e-13 -1.4924378063924297 2.58497810816347 6.164513720737926e-14 -4.3334714207437026e-13 -1.3715659221173645e-13 4.703680729498344" Properties=species:S:1:pos:R:3 energy=-3187.10174359 pbc="T T T" n_minim_iter=0
Ti       0.00000000      -0.00000000       0.00000000 
Ti      -0.00000000       1.72331873       2.35184036 
