2
Lattice="2.8936767755753645 -5.1297525960554535e-14 -2.645508855567285e-13 -1.4468383877877258 2.5059975983336704 5.976165341701718e-14 -4.20106806264085e-13 -1.3296595804536162e-13 4.559966126686361" Properties=species:S:1:pos:R:3 energy=-3187.26641554 pbc="T T T" n_minim_iter=0
Ti       0.00000000      -0.00000000       0.00000000 
Ti      -0.00000000       1.67066506       2.27998306 
