2
Lattice="2.6917003629792813 -4.7716998115834507e-14 -2.4608543728521567e-13 -1.3458501814896815 2.331080894036179 5.559033598797243e-14 -3.9078367440892263e-13 -1.236850364752379e-13 4.241683999393606" Properties=species:S:1:pos:R:3 energy=-3186.75839859 pbc="T T T" n_minim_iter=0
Ti       0.00000000      -0.00000000       0.00000000 
Ti      -0.00000000       1.55405393       2.12084200 
