2
Lattice="2.845838620256514 -5.0449477196059805e-14 -2.60177340294236e-13 -1.4229193101283 2.464568540551667 5.877367601663662e-14 -4.131616163872469e-13 -1.3076776984176414e-13 4.484580938659013" Properties=species:S:1:pos:R:3 energy=-3187.2644219 pbc="T T T" n_minim_iter=0
Ti       0.00000000      -0.00000000       0.00000000 
Ti      -0.00000000       1.64304569       2.24229047 
