2
Lattice="3.1328527495357394 -8.867707975735761e-12 3.6243093160276102e-12 -1.566426374775548 2.713130069388344 -1.9972304016167528e-11 5.681556931794446e-12 -3.305401275688052e-11 4.649367887914253" Properties=species:S:1:pos:R:3 energy=-3186.80829617 pbc="T T T" n_minim_iter=0
Ti       0.00000000      -0.00000000       0.00000000 
Ti      -0.00000000       1.80875338       2.32468394 
