2
Lattice="3.111394180540573 -8.806968343637026e-12 3.5994845005206166e-12 -1.5556970902779124 2.694546403496145 -1.983550311999171e-11 5.642640936959086e-12 -3.282760830380951e-11 4.617521902934109" Properties=species:S:1:pos:R:3 stress="0.10122024219963775 -1.1609124437048263e-12 1.986947327230199e-13 -1.1609124437048263e-12 0.10122024218238629 -1.0684468597511087e-12 1.986947327230199e-13 -1.0684468597511087e-12 0.10034621916887622" pbc="T T T" n_minim_iter=0
Ti       0.00000000      -0.00000000       0.00000000 
Ti      -0.00000000       1.79636426       2.30876095 
