2
Lattice="3.154021315649889 -8.927626739103479e-12 3.648798635350336e-12 -1.5770106578326748 2.7314625854182295 -2.0107256109935995e-11 5.719946994512784e-12 -3.3277357455888684e-11 4.6807834887716195" Properties=species:S:1:pos:R:3 energy=-3186.72063018 pbc="T T T" n_minim_iter=0
Ti       0.00000000      -0.00000000       0.00000000 
Ti      -0.00000000       1.82097505       2.34039174 
