2
Lattice="3.0068240158160093 -5.33033386147531e-14 -2.7489523460656695e-13 -1.50341200790805 2.603985982763635 6.209842655402689e-14 -4.365336325552284e-13 -1.381651327858765e-13 4.738267859340243" Properties=species:S:1:pos:R:3 energy=-3187.03515647 pbc="T T T" n_minim_iter=0
Ti       0.00000000      -0.00000000       0.00000000 
Ti      -0.00000000       1.73599065       2.36913393 
