2
Lattice="2.917013886419942 -5.171123355205152e-14 -2.6668445257858114e-13 -1.4585069432100148 2.526208129178785 6.024362304880885e-14 -4.2349491069478697e-13 -1.3403831046829006e-13 4.596741635217316" Properties=species:S:1:pos:R:3 energy=-3187.24372076 pbc="T T T" n_minim_iter=0
Ti       0.00000000      -0.00000000       0.00000000 
Ti      -0.00000000       1.68413875       2.29837082 
