2
Lattice="2.636185484664479 -4.673286058686521e-14 -2.4101005694428775e-13 -1.3180927423322797 2.283003599120952 5.4443815082341075e-14 -3.827239704275291e-13 -1.2113409884350063e-13 4.154201538747227" Properties=species:S:1:pos:R:3 energy=-3186.3446271 pbc="T T T" n_minim_iter=0
Ti       0.00000000      -0.00000000       0.00000000 
Ti      -0.00000000       1.52200240       2.07710077 
