2
Lattice="2.5558964887570657 1.7135536219388897e-11 -1.2967510554378903e-11 -1.277948244363693 2.2134712927324793 1.5609871886239755e-12 -2.0414769322070992e-11 -8.95126542994518e-12 4.276736848056559" Properties=species:S:1:pos:R:3 stress="-0.3941175328826336 1.251414621300159e-12 6.654557127792896e-13 1.251414621300159e-12 -0.3941175333103927 2.0474449856104684e-13 6.654557127792896e-13 2.0474449856104684e-13 -0.39899703617078186" pbc="T T T" n_minim_iter=0
Ti       0.00000000      -0.00000000       0.00000000 
Ti      -0.00000000       1.47564753       2.13836842 
